<?xml version="1.0"?>
<VTKFile type="UnstructuredGrid" version="0.1" byte_order="LittleEndian">
  <UnstructuredGrid>
    <Piece NumberOfPoints="3740" NumberOfCells="7875">
      <PointData>
        <DataArray type="Float64" Name="potential re" NumberOfComponents="1" format="ascii">
 -2.8022730E-006 -1.1182508E-006  1.4746185E-005  6.4247076E-005 -6.7652095E-008  1.2981156E-007 -7.5014579E-010  2.6086095E-008  8.0018730E-005  6.1586307E-005  8.0753179E-005  1.0353971E-004  1.0293726E-004  7.8754002E-005  2.1280615E-026  4.7953137E-027  4.7953137E-027  2.0894004E-026 -9.7329703E-011 -1.3626604E-006  4.4843624E-011 -1.6993895E-008  1.2357055E-005  1.0066478E-005  8.0206993E-006  6.2045359E-006  4.5888106E-006  3.2115868E-006  2.0432793E-006  1.1107496E-006  3.5352036E-007 -2.2719273E-007 -6.5421495E-007 -9.0734814E-007 -1.0490754E-006 -1.1251893E-006 -1.1562681E-006 -1.1525242E-006  5.5391064E-005  4.7636509E-005  4.0883969E-005  3.5080699E-005  3.0149320E-005  2.6078745E-005  2.2732931E-005  2.0020561E-005  1.7933808E-005  1.6370584E-005  1.5353799E-005 -7.2591562E-008 -7.9496618E-008 -8.8240339E-008 -9.8904261E-008 -1.1129185E-007 -1.2553275E-007 -1.4111677E-007 -1.5756198E-007 -1.7056154E-007 -1.8136882E-007 -1.8757347E-007 -1.9065952E-007 -1.9211125E-007 -1.9110289E-007 -1.8701726E-007 -1.8143740E-007 -1.7255016E-007 -1.6451654E-007 -1.5559669E-007 -1.4576766E-007 -1.3550284E-007 -1.2000641E-007 -1.1012038E-007 -1.0080651E-007 -8.7492237E-008 -7.7869333E-008 -6.6435421E-008 -5.3950238E-008 -4.5181675E-008 -3.9248061E-008 -2.6129194E-008 -2.0807241E-008 -1.1108377E-008 -3.6121631E-009  3.8329219E-009  1.1203146E-008  1.5684001E-008  2.3988489E-008  2.9574482E-008  3.5331490E-008  3.8233765E-008  4.3442366E-008  4.7948754E-008  5.3191229E-008  5.3915101E-008  5.9108605E-008  6.1504373E-008  6.4829625E-008  6.5803088E-008  6.9895406E-008  7.1489313E-008  7.3700237E-008  7.3764323E-008  7.6344719E-008  7.7624210E-008  7.9450284E-008  7.7860067E-008  8.0423813E-008  8.1453288E-008  8.0056104E-008  8.3014170E-008  8.0105244E-008  8.1350923E-008  8.2236808E-008  8.2403895E-008  8.2667706E-008  8.0568922E-008  8.3025461E-008  8.2578555E-008  7.9661249E-008  8.1651907E-008  7.8732016E-008  7.9252586E-008  7.9041140E-008  7.8111513E-008  7.7985958E-008  7.6405953E-008  7.6871875E-008  7.6622170E-008  7.4643161E-008  7.5363166E-008  7.3734286E-008  7.2243978E-008  7.2533270E-008  7.1449297E-008  7.1141072E-008  6.9279742E-008  6.9862008E-008  6.9144899E-008  6.7137893E-008  6.7675464E-008  6.7268362E-008  6.6588874E-008  6.6433210E-008  6.7030971E-008  6.6357171E-008  6.9554671E-008  7.6866117E-008  9.3638808E-008  5.4770117E-008  1.6636407E-008  2.9268977E-009  5.8896628E-006  1.2034333E-005  1.8093542E-005  2.4250516E-005  3.0534825E-005  3.6784022E-005  4.3064704E-005  4.9416919E-005  5.5420757E-005  6.1088630E-005  6.6328304E-005  7.1238723E-005  7.5766973E-005  7.9895640E-005  8.3634957E-005  8.7146983E-005  9.0339596E-005  9.3249111E-005  9.5907563E-005  9.8310373E-005  1.0042268E-004  1.0226513E-004  1.0380992E-004  1.0497176E-004  1.0575977E-004  1.0604991E-004  1.0582210E-004  1.0514479E-004  1.0388133E-004  1.0207497E-004  9.9685349E-005  9.6711373E-005  9.3216505E-005  8.9104567E-005  8.4763042E-005  7.5027482E-005  7.0275825E-005  6.5807497E-005  9.3630063E-005  1.0425367E-004  1.1281065E-004  1.2003792E-004  1.2628485E-004  1.3184378E-004  1.3663562E-004  1.4090426E-004  1.4454696E-004  1.4768366E-004  1.5032905E-004  1.5252709E-004  1.5420706E-004  1.5544786E-004  1.5625932E-004  1.5654628E-004  1.5634235E-004  1.5559345E-004  1.5428978E-004  1.5241817E-004  1.4984248E-004  1.4657739E-004  1.4256693E-004  1.3759020E-004  1.3151795E-004  1.2402692E-004  1.1491155E-004  1.0602722E-004  1.1440350E-004  1.2358355E-004  1.3079202E-004  1.3675376E-004  1.4158848E-004  1.4558080E-004  1.4868507E-004  1.5105138E-004  1.5276979E-004  1.5386715E-004  1.5443398E-004  1.5446896E-004  1.5394335E-004  1.5297673E-004  1.5160168E-004  1.4978743E-004  1.4748658E-004  1.4476862E-004  1.4161752E-004  1.3795790E-004  1.3377711E-004  1.2901751E-004  1.2355725E-004  1.1742387E-004  1.1027596E-004  1.0187517E-004  9.1438854E-005  8.2757789E-005  6.3770368E-005  6.5767202E-005  6.7557723E-005  6.9020700E-005  7.0117212E-005  7.0841357E-005  7.1118846E-005  7.0865869E-005  7.0099307E-005  6.8777916E-005  6.6863340E-005 -2.6118075E-006 -2.4318774E-006 -2.2537506E-006 -2.0689994E-006 -1.8724557E-006 -1.6557487E-006 -1.4083068E-006 -2.8161898E-006 -2.7686866E-006 -2.6745513E-006 -2.5458907E-006 -2.3937253E-006 -2.2284565E-006 -2.0543542E-006 -1.8807717E-006 -1.7095666E-006 -1.5458719E-006 -1.3899696E-006 -1.2452441E-006 -1.1121756E-006 -9.9114968E-007 -8.8174906E-007 -7.8389223E-007 -6.9707895E-007 -6.2013861E-007 -5.5285638E-007 -4.9400679E-007 -4.4239258E-007 -3.9772228E-007 -3.5879208E-007 -3.2485432E-007 -2.9541100E-007 -2.6951662E-007 -2.4672400E-007 -2.2656463E-007 -2.0843396E-007 -1.9212181E-007 -1.7723481E-007 -1.6339789E-007 -1.5050571E-007 -1.3830522E-007 -1.2648441E-007 -1.1497355E-007 -1.0358725E-007 -9.2097792E-008 -8.0261325E-008 -7.6101334E-008 -9.6621779E-008 -1.2102576E-007  2.3904306E-008  4.5035232E-007 -3.1595565E-008 -1.1869537E-007 -2.5852986E-007 -3.8083067E-007  1.1769044E-026  8.8806618E-027  7.2756146E-027  6.2985473E-027  5.7147743E-027  5.0835190E-027  4.8836375E-027  4.5010698E-027  4.2692280E-027  4.0529077E-027  3.8684918E-027  3.6904249E-027  3.5519746E-027  3.3668595E-027  3.2319775E-027  3.2655427E-027  3.2597390E-027  3.2326528E-027  3.2401793E-027  3.2718464E-027  3.1809883E-027  3.1859202E-027  3.3007018E-027  3.3130407E-027  3.3140981E-027  3.3150669E-027  3.3162581E-027  3.3168001E-027  3.3186720E-027  3.3183838E-027  3.3184230E-027  3.3174131E-027  3.3177266E-027  3.3178060E-027  3.3185843E-027  3.3187627E-027  3.3181470E-027  3.2417488E-027 -9.8133330E-010 -2.8511554E-012 -1.4468354E-010  1.1218603E-009 -4.3615779E-010 -2.7490451E-010 -1.6497270E-009 -6.1709743E-009  3.5183069E-009  1.8489749E-009  8.3890459E-009  3.5074317E-009 -1.8957221E-010 -2.5084836E-011 -5.6720282E-010 -6.7523420E-010 -2.2235977E-009  3.3179279E-027  3.5591522E-027  3.7057012E-027  3.8742734E-027  4.0366956E-027  4.2601373E-027  4.5286712E-027  4.8485084E-027  5.0955004E-027  5.6310713E-027  6.3639900E-027  7.3685085E-027  8.9335667E-027  1.1965663E-026 -7.7136801E-009 -1.5200930E-008 -2.2575402E-008 -3.0007737E-008 -3.7128497E-008 -4.4578341E-008 -5.1885737E-008 -5.9667593E-008 -6.7610630E-008 -7.5680734E-008 -8.3768187E-008 -9.2259349E-008 -1.0096388E-007 -1.0997673E-007 -1.2049457E-007 -1.3095865E-007 -1.4163398E-007 -1.5467121E-007 -1.6779935E-007 -1.8215164E-007 -1.9813404E-007 -2.1672583E-007 -2.3964521E-007 -2.6084336E-007 -2.8729942E-007 -3.1798774E-007 -3.5347905E-007 -3.9331719E-007 -4.3991670E-007 -4.9133392E-007 -5.5056709E-007 -6.1711651E-007 -6.9228346E-007 -7.7631651E-007 -8.7038289E-007 -9.7206435E-007 -1.0796800E-006 -1.1993415E-006 -1.3232243E-006 -1.4492193E-006 -1.5745466E-006 -1.6975640E-006 -1.8112825E-006 -1.9068665E-006 -1.9695922E-006 -1.9924852E-006 -1.9654414E-006 -1.8628899E-006 -1.6644130E-006 -1.9804724E-006 -2.4643032E-006 -2.8267770E-006 -3.0905922E-006 -3.2798241E-006 -3.4080749E-006 -3.4888449E-006 -3.5356226E-006 -3.5557785E-006 -3.5559744E-006 -3.5416055E-006 -3.5170261E-006 -3.4845176E-006 -3.4431423E-006 -3.3918668E-006 -3.3275912E-006 -3.2447223E-006 -3.1358364E-006 -2.9914220E-006 -5.4777540E-008 -4.2412828E-008 -3.1458869E-008 -2.2148974E-008 -1.4780396E-008 -9.2362148E-009 -5.2995557E-009 -2.7359696E-009 -1.0975851E-009  6.6059145E-011  4.6380370E-011  4.8928230E-011  7.7288876E-011  3.4662005E-010  2.3740454E-010  4.1420794E-010 -1.1058101E-010 -6.7521997E-011 -9.7167850E-011 -8.7837132E-011 -2.2440018E-010  1.3966418E-010  3.0761062E-010 -6.4603317E-010 -4.1769377E-012  3.3266235E-010  8.4034767E-011 -6.2377732E-011 -1.2165892E-009 -4.9179449E-009 -2.4298977E-009 -7.3564932E-009 -1.3902481E-008 -1.7487624E-008  2.5197871E-008  2.9447615E-006  5.8877995E-006  8.8248166E-006  1.1762946E-005  1.4644518E-005  1.7572530E-005  2.0365611E-005  2.3150238E-005  2.5871548E-005  2.8514962E-005  3.1079711E-005  3.3566995E-005  3.5975290E-005  3.8339952E-005  4.0660804E-005  4.2999209E-005  4.5363294E-005  4.7783908E-005  5.0287313E-005  5.2882438E-005  5.5576365E-005  5.8395542E-005  6.1306239E-005  2.2603176E-010 -5.1335032E-010 -2.2218826E-010 -1.2341849E-010 -1.3218701E-010 -1.7497415E-010 -1.7260115E-010 -1.7853772E-010 -1.7306260E-010 -1.5635072E-010 -1.6532106E-010 -2.0446960E-010 -1.5701145E-010 -1.2345654E-010 -2.1437022E-010 -1.7835897E-010 -1.7047281E-010 -1.8422295E-010 -1.7705185E-010 -1.5838231E-010 -1.2125389E-010 -4.0155051E-011 -1.0008065E-010 -2.0077224E-010 -1.7388434E-010 -1.2976913E-010 -9.0416890E-011 -3.4811312E-011 -6.5811541E-011 -1.3826357E-010 -1.0930728E-010 -1.0038605E-010 -8.5093754E-011 -6.5380798E-011 -6.3256903E-011 -8.1717075E-011  4.3417578E-012 -2.6094785E-011 -5.1941532E-011  4.9783495E-012  9.4730887E-012  8.6984888E-012  1.6929761E-011  8.4956754E-011  3.2420674E-011  1.2920884E-010  1.3595060E-010  1.4846741E-010  2.0842252E-010  1.4248159E-010  2.1929825E-010  2.7499510E-010  2.9376435E-010  3.6278646E-010  2.5573213E-010  3.5002029E-010  4.6322576E-010  4.5207796E-010  5.6479993E-010  4.2874639E-010  5.0157381E-010  6.9182150E-010  7.1148958E-010  7.5987576E-010  8.9103886E-010  6.6693036E-010  7.4801668E-010  1.1613901E-009  1.1526490E-009  1.1264285E-009  1.2816319E-009  1.4666042E-009  1.6018466E-009  1.1378599E-009  1.0989999E-009  1.6651893E-009  1.7660493E-009  1.8047604E-009  1.7148035E-009  1.8862660E-009  1.9611888E-009  2.0778427E-009  1.6148298E-009  1.4978792E-009  2.3969710E-009  2.0921858E-009  1.8711027E-009  1.9203643E-009  1.9942976E-009  1.8638664E-009  1.5964492E-009  1.3785696E-009  1.2250846E-009  4.0824003E-010  2.3748294E-010  1.6495997E-010  1.0940809E-010  8.3413443E-011  2.0769017E-011 -2.4540826E-008  4.1678110E-009  6.3991882E-008 -8.2390116E-007 -3.1164578E-007 -4.7775386E-007 -1.0428805E-006 -2.0001468E-007 -1.7796891E-006 -7.0644388E-008 -3.9621666E-007 -2.0488008E-007 -1.2778716E-007 -3.6478235E-006 -6.3580228E-007 -1.2506918E-006 -1.6695954E-006 -1.5572864E-007 -2.3663571E-006 -2.6217229E-008 -3.6693117E-006 -3.4764390E-006 -2.9190944E-007 -9.9431928E-008 -2.2452453E-006 -1.6232053E-007 -6.5357118E-007 -3.6784553E-008 -3.9496415E-007 -1.3996975E-008 -2.4410459E-008 -3.2879492E-006 -5.8845475E-009 -2.7797775E-006 -2.6030539E-006 -5.5851952E-008 -4.9968953E-007 -2.4152050E-007 -3.7006503E-006 -8.1374802E-007 -3.3404475E-006 -3.5702629E-006 -1.3212545E-006 -2.0684893E-006 -1.8673319E-007 -2.7260888E-007 -1.0252782E-007 -1.4371233E-006 -9.9748256E-007 -5.4721429E-007 -5.6026720E-009 -2.9611102E-008 -2.9243569E-009 -2.3936781E-006 -2.9902524E-006 -2.3151860E-008 -1.7292281E-008 -4.5149393E-008 -6.5982364E-008 -8.8357961E-008 -6.1297389E-008 -9.6596572E-008 -1.3948006E-007 -1.5204769E-007 -1.1157300E-007 -1.6196740E-007 -1.1782096E-007 -1.6667540E-007 -2.2492197E-007 -2.2828722E-007 -1.6392345E-007 -2.1000876E-007 -3.0909680E-007 -2.9707480E-007 -2.1156038E-007 -2.8580636E-007 -2.0091669E-007 -2.6963469E-007 -3.7870563E-007 -3.5876830E-007 -2.6002035E-007 -3.4592811E-007 -2.5991811E-007 -3.4603180E-007 -4.5704926E-007 -4.9121778E-007 -3.6674979E-007 -5.0938642E-007 -6.6958042E-007 -7.0891012E-007 -5.8050439E-007 -8.0978616E-007 -7.1283613E-007 -9.8436221E-007 -1.1383214E-006 -1.3705638E-006 -1.2395764E-006 -1.6646338E-006 -1.8427144E-006 -2.1691978E-006 -2.0229781E-006 -4.9843855E-007 -4.9361441E-007 -8.9546797E-007 -2.3406994E-006 -2.6876594E-006 -1.9954437E-007 -8.4076032E-007 -1.9869115E-006 -1.7426636E-007 -1.6202269E-007 -8.2731697E-008 -8.8970689E-008 -2.8233265E-006 -5.3763124E-007 -6.8091819E-007 -1.6148051E-007 -3.1466372E-006 -3.0444092E-006 -5.8459999E-007 -5.6845852E-007 -3.1987012E-006 -1.0241787E-006 -2.2270775E-007 -6.4929754E-008 -9.7315348E-007 -1.4263051E-007 -1.9409345E-007 -7.5091774E-008 -3.4696659E-006 -3.4447515E-006 -2.8765096E-006 -5.5645662E-007 -1.5142622E-007 -1.5039582E-007 -1.5610383E-007 -6.9725756E-007 -6.2657561E-007 -6.5758760E-007 -2.0861965E-007 -2.2436419E-007 -2.0004216E-007 -2.2587728E-007 -4.4763763E-007 -3.6556897E-006 -5.8785056E-007 -5.4923088E-007 -1.3614767E-007 -1.2972229E-007 -1.2027582E-007 -9.1138017E-008 -2.3095593E-007 -2.6290812E-007 -5.9459531E-008 -8.2171781E-007 -8.9983525E-007 -3.6760756E-006 -7.9894550E-007 -4.8396482E-007 -3.9756440E-007 -2.4755749E-007 -2.6108227E-007 -1.1018958E-006 -1.1929914E-006 -4.9920388E-008 -4.3086807E-008 -8.3330856E-008 -8.3204234E-007 -3.5487301E-006 -8.6232435E-007 -1.0066143E-006 -8.4373958E-007 -6.6361462E-007 -3.3110487E-006 -1.2000473E-006 -1.3461434E-006 -1.3063460E-006 -1.4886660E-006 -2.1418680E-007 -1.8980805E-007 -1.0454014E-006 -1.2104785E-006 -1.2200327E-007 -1.2085781E-007 -5.4222017E-007 -5.1926908E-007 -5.0019520E-007 -4.8379135E-007 -4.7869093E-007 -4.5781133E-007 -7.0822076E-007 -3.8638457E-008 -3.1567740E-008 -4.6029817E-008 -2.9243366E-008 -2.2822414E-008 -2.5528796E-008 -1.7155617E-008 -1.2109105E-007 -1.1014003E-007 -6.9096918E-007 -1.0969882E-007 -1.9816576E-008 -1.4343787E-006 -1.6504225E-006 -1.6369369E-006 -1.8327816E-006 -2.5320919E-007 -2.9226553E-007 -2.9193512E-007 -3.2847190E-007 -2.1522413E-007 -3.1722940E-007 -3.5845903E-007 -3.5159807E-007 -7.2463761E-008 -3.3688664E-007 -4.4167058E-007 -3.6979684E-007 -3.2187700E-007 -1.4282704E-007 -1.0850052E-006 -1.3448712E-007 -8.9738822E-007 -4.4035230E-007 -7.5147200E-007 -8.3161266E-008 -3.6839781E-006 -3.4929143E-006 -3.8870280E-007 -1.6638856E-007 -1.1852230E-006 -1.4077434E-006 -1.4374096E-006 -1.6566821E-006 -1.6806712E-006 -1.9234237E-006 -1.9045818E-006 -2.1913753E-006 -2.2390207E-006 -2.5151955E-006 -2.5828945E-006 -2.8995193E-006 -2.9536779E-006 -2.7720047E-006 -3.0612290E-006 -2.9491803E-006 -2.6755775E-006 -2.1277831E-006 -2.6725327E-006 -3.0490909E-006 -3.2676443E-006 -3.3644784E-006 -1.6153133E-006 -4.3316156E-007 -5.2609061E-007 -2.6442691E-007 -3.1901112E-006 -3.2798578E-006 -3.0427385E-008 -5.1406867E-008 -8.1011402E-007 -9.1188094E-008 -9.1842415E-008 -8.5785454E-008 -7.8352129E-007 -2.0851152E-007 -1.8506431E-007 -5.4475101E-007 -1.7291412E-006 -1.9581418E-006 -2.0432496E-006 -2.1976479E-006 -2.2814563E-006 -2.4539153E-006 -2.7892680E-006 -3.0719235E-006 -6.7510191E-007 -6.0434281E-007 -3.5794969E-007 -1.2280474E-006 -2.7412314E-007 -9.2371654E-008 -1.2454581E-006 -3.0902990E-007 -1.2372306E-008 -1.0421258E-008 -4.1237378E-007 -3.5084435E-007 -2.3872089E-007 -2.2882821E-006 -2.5747511E-006 -2.2844957E-008 -3.5067593E-006 -3.4075820E-006 -3.5725141E-006 -3.4716287E-006 -3.6559038E-006 -3.5852171E-006 -1.2968169E-007 -4.8094330E-007 -4.2247403E-007 -1.8859653E-006 -6.9869877E-007 -3.8552366E-007 -5.9425086E-008 -2.0628854E-007 -1.8317657E-007 -2.5787637E-006 -3.7058703E-006 -3.9998455E-007 -3.0655904E-007 -2.0069637E-007 -1.5164829E-006 -1.4686299E-006 -1.3443623E-006 -3.3868406E-007 -2.4222999E-006 -1.4138793E-007 -1.4974244E-007 -1.5551989E-007 -1.6806355E-007 -4.8222026E-007 -4.1742737E-007 -2.1242807E-007 -1.7205953E-007 -1.8350162E-007 -1.6474277E-007 -9.1271794E-007 -1.0797910E-006 -1.0546287E-007 -1.1242046E-007 -3.6904093E-008 -4.6179567E-008 -5.5394689E-008 -6.3182448E-008 -3.9892826E-007 -1.1188917E-006 -2.8192233E-008 -4.9079389E-007 -1.6595199E-006 -1.4758979E-006 -1.2691221E-006 -9.7673397E-007 -9.0877166E-007 -7.3952778E-008 -8.8031691E-008 -3.7618934E-006 -3.7034626E-006 -3.7741553E-006 -2.0686893E-006 -2.4756679E-007 -2.8849177E-007 -1.1720978E-007 -1.1812344E-007 -6.0031449E-007 -6.8980436E-007 -1.6052090E-007 -3.4229978E-006 -6.0159475E-007 -3.1708073E-006 -3.0219003E-006 -3.0427329E-006 -2.8873216E-006 -2.6824700E-006 -3.1877615E-006 -9.1053692E-007 -2.1237569E-008 -1.5881579E-008 -1.4635181E-007 -2.5835820E-006 -3.3359309E-006 -3.3144458E-006 -2.4149983E-006 -2.5672320E-006 -2.8289819E-006 -1.5245485E-006 -2.7166143E-007 -2.0068323E-006 -3.1235884E-006 -3.2408346E-006 -1.0305166E-008 -1.7688624E-007 -3.2474047E-006 -1.1953858E-007 -7.7417917E-007 -1.8280406E-007 -9.6854003E-008 -9.5497137E-008 -1.0650320E-007 -3.6228949E-006 -3.6781376E-006 -4.2393955E-007 -3.9364441E-007 -5.7404706E-008 -1.5785943E-006 -5.1346475E-007 -4.7450607E-007 -3.5781892E-007 -5.8123817E-008 -8.2224009E-007 -2.8300905E-007 -1.3958045E-007 -3.1167540E-006 -3.2429117E-006 -3.1272822E-007 -3.3444520E-006 -7.1042443E-007 -3.1278621E-008 -3.0225012E-008 -1.2067523E-008 -1.9913209E-009 -5.3596774E-009 -1.5683571E-006 -1.9609445E-006 -2.4323163E-007 -6.9782845E-007 -5.9271350E-007 -4.0393670E-009 -2.7970252E-007 -3.1645418E-007 -3.4158625E-007 -2.9238266E-006 -2.5859773E-006 -3.5380643E-006 -2.5616864E-006 -3.1866685E-007 -8.1619393E-007 -6.9881032E-007 -6.0172550E-007 -7.0369959E-007 -4.4697395E-007 -1.0127314E-006 -3.6086698E-006 -5.6228601E-007 -4.4522299E-007 -7.1894209E-007 -3.9491158E-008 -7.0732285E-008 -3.0275148E-006 -2.2110989E-007 -1.1771695E-006 -2.6551710E-007 -9.1928749E-007 -3.4167171E-006 -3.5272353E-006 -3.4774033E-006 -3.6808998E-006 -1.8899206E-007 -1.4905091E-006 -2.2304789E-006 -3.6960931E-006 -1.8675196E-006 -1.9113981E-006 -1.6916777E-007 -1.6360884E-006 -2.2111890E-007 -2.3893140E-007 -2.9099769E-006 -8.9804909E-007 -3.4716038E-007 -7.5755098E-007 -9.7338246E-007 -6.9153225E-007 -2.8206266E-008 -1.7460489E-007 -2.9913972E-007 -1.4173694E-006 -6.9427164E-008 -1.7502407E-006 -1.0435155E-007 -1.2635255E-007 -7.6736208E-008 -3.9710957E-007 -2.2390926E-007 -1.8422431E-006 -2.0988997E-008 -4.6792693E-007 -3.4805652E-006 -3.6894561E-007 -1.3030988E-007 -1.1039677E-006 -2.2719112E-006 -2.7107718E-006 -1.3721246E-007 -6.7274121E-007 -5.8191970E-007 -8.8419553E-008 -5.0308832E-007 -1.7505355E-007 -1.0003020E-006 -3.7612308E-006 -2.5639083E-006 -1.7325484E-008 -8.2264177E-008 -3.8696026E-008 -3.1873279E-006 -1.1627730E-007 -1.0963288E-006 -1.3494858E-008 -3.0293983E-007 -5.7383101E-007 -2.6108683E-006 -8.5168438E-008 -3.6612117E-008 -4.7433256E-008 -2.0505733E-006 -6.4107409E-008 -5.5713526E-007 -2.9527742E-009 -2.5206070E-007 -1.2432109E-006 -1.1224978E-006 -1.1593531E-007 -3.8370761E-007 -6.9477359E-009 -2.2940944E-006 -1.3233016E-006 -2.8226698E-007 -3.4162665E-006 -3.8094349E-007 -3.5705557E-007 -1.1934726E-006 -2.1540791E-007 -3.0052887E-006 -1.6339543E-006 -9.5289986E-007 -2.7832165E-006 -4.5077572E-007 -2.3764964E-006 -3.5327517E-006 -2.3153783E-007 -6.1658355E-007 -1.8380385E-007 -1.5229583E-007 -4.2799119E-007 -6.5823260E-007 -2.6410447E-008 -2.5336387E-007 -2.0311545E-006 -8.7274464E-007 -3.1131629E-006 -1.5058872E-007 -5.8451856E-008 -3.9165106E-007 -2.9719179E-007 -7.4429689E-007 -2.4602362E-006 -7.8281859E-009 -6.0935638E-007 -4.4566746E-007 -1.0073907E-007 -1.7997010E-006 -1.0661467E-007 -1.1663540E-007 -3.7611681E-006 -7.3878616E-007 -3.2040272E-007 -9.4223524E-008 -2.9606515E-006 -2.3998498E-006 -3.7271952E-006 -3.6764068E-006 -2.4108740E-006 -3.3409430E-006 -3.6078156E-006 -6.4970723E-008 -2.5994564E-007 -3.2146434E-007 -2.8863227E-006 -2.0758611E-006 -3.7697131E-006 -4.4763937E-007 -2.6432054E-007 -1.5441781E-007 -3.1994148E-007 -2.7662720E-008 -2.2794631E-006 -4.1521277E-007 -1.1507583E-007 -6.1507505E-008 -8.1030616E-007 -5.7668884E-007 -1.2584828E-007 -1.2020455E-006 -3.8125155E-007 -5.3756310E-007 -3.8888915E-007 -8.3432105E-008 -4.5000591E-008 -6.2238094E-008 -2.5583626E-006 -4.1041142E-008 -1.7017420E-007 -2.7954587E-007 -2.9797046E-006 -2.1040100E-006 -1.2625522E-006 -9.9455605E-007 -1.2648490E-009 -8.5851578E-009 -4.5126496E-007 -1.7735008E-006 -1.6023246E-007 -1.4477338E-007 -1.0745027E-008 -8.5038337E-009 -1.7922642E-007 -4.2963146E-007 -3.2976338E-006 -5.1212494E-007 -3.1653531E-006 -3.4796708E-007 -1.9993585E-006 -3.5150085E-006 -3.5815424E-006 -2.2400449E-006 -1.3668290E-006 -1.9955167E-007 -6.0660482E-007 -5.4491437E-008 -1.0451271E-006 -2.4043201E-006 -9.9117310E-007 -2.0502626E-007 -1.1923776E-007 -3.5417334E-007 -7.3361454E-007 -1.3408851E-006 -1.8915195E-006 -3.2877768E-006 -3.3740072E-006  2.1923590E-008  1.2598351E-008 -3.8462776E-008 -2.0221751E-007 -4.7222959E-007 -9.3296229E-007 -1.3587016E-006 -3.1912055E-006 -2.6767126E-006 -1.1095277E-006  2.7442607E-008 -3.2460455E-007  3.3438709E-005  5.0336302E-007  1.5489373E-008 -2.1910841E-006  2.4100405E-005 -2.7787619E-006 -1.4904577E-006  1.3025018E-007  2.9813898E-006  2.7258242E-005  4.0478148E-005  1.9260297E-005  8.2693570E-006  8.5433995E-009 -1.5033175E-006  1.5584026E-005 -1.8278002E-006  5.4144452E-008  3.3060528E-005  1.3236777E-005  2.3637501E-005  4.5157308E-005 -2.9852642E-006 -1.1741816E-006 -1.3579952E-006 -3.3109186E-006 -3.3761159E-006  1.9320138E-008 -7.4846554E-007  3.1455733E-008  2.2591044E-008 -3.4883765E-007  1.6845184E-008 -1.2884707E-007  6.5991504E-006  1.9410994E-008  3.4554128E-006  1.2853504E-005  5.0697616E-005 -1.4924877E-006  2.6400482E-009 -1.5637201E-006 -1.8680699E-006 -1.8304212E-006 -2.1144198E-006 -2.1439220E-006 -2.3294715E-006 -2.3056151E-006 -2.4943892E-006 -2.4330190E-006 -2.5998807E-006 -2.4975936E-006 -2.5968566E-006 -2.4723113E-006 -2.5211051E-006 -2.3368713E-006 -2.2745002E-006 -2.0349978E-006 -1.8337742E-006 -1.5169693E-006 -1.0894275E-006 -6.9942562E-007  7.4879070E-008  5.2868922E-007  1.6497657E-006  2.4908472E-006  1.1007126E-006  3.4810552E-006  2.0285456E-006  4.7113438E-006  3.2397086E-006  6.3008277E-006  4.7359518E-006  8.1479983E-006  8.7263495E-007  2.7423201E-006  2.1233184E-006  3.9521236E-006  3.5304035E-006  5.2188459E-006  4.6714485E-006  5.7569409E-006  6.6477815E-006  5.7577674E-006 -2.3207694E-006  6.6413816E-006  6.8356066E-007  3.9423732E-006  4.8006190E-006 -2.1631893E-006  6.8578953E-006  6.0093523E-006  4.3458426E-006  5.2746119E-006  3.7743008E-006  4.3533068E-006  6.2118501E-006  5.4056021E-006  3.8323539E-006  4.6639944E-006  3.2726683E-006  3.7765606E-006  5.4384529E-006  4.6874830E-006  7.3674777E-006  3.2697605E-006  3.9695883E-006  5.4844947E-006  4.4136362E-006  6.2022521E-006  5.1499849E-006  3.7615881E-006  4.2353867E-006  3.1026790E-006  3.4819346E-006  1.0385722E-005  3.0162705E-006  2.6915054E-006 -2.6965575E-006  4.7263269E-006  3.8223960E-006  7.1908190E-006  2.7053264E-006  3.0404481E-006  4.0893065E-006  3.2290423E-006  4.2767362E-006  3.3506342E-006  2.5654157E-006  2.6003755E-006  3.3552354E-006  2.5753525E-006  1.9638636E-006  1.9491244E-006  2.4851108E-006  1.8091625E-006  2.3297093E-006  1.6907650E-006  2.2085913E-006  1.3132983E-006  1.2193613E-006  8.4068784E-006  2.2146679E-006  8.9795204E-006  1.8919218E-006  1.4393546E-006  1.4438093E-006  2.0570643E-006 -2.6164968E-006  1.2560782E-005  3.0109953E-006  5.8138938E-006  1.5122730E-005  8.1609119E-006  2.5180834E-006  9.1050621E-007  8.7248805E-007  5.4367746E-006  5.5769105E-006  1.0719692E-006  7.6429397E-007  7.3879257E-006  2.1182851E-006  1.8283505E-007  1.6791862E-006  1.8998662E-006  9.2630517E-006  1.0744193E-006  1.5300136E-006  6.1544666E-007  5.0352554E-007  6.2919845E-007 -2.3502453E-006  1.0030978E-006  4.2709554E-007  1.1387729E-006  1.1938900E-006  8.2600230E-006 -1.7971836E-006  5.5980435E-006 -2.3468563E-006  1.8044120E-005  2.0911111E-005  9.6925453E-007  7.0265860E-007  7.1228334E-007  1.4666419E-006  3.3590450E-007  2.7725974E-007  7.4289743E-007  1.2825171E-006  5.7195123E-006  1.4922397E-006  9.1008908E-007  1.3302245E-006  1.1075932E-005  1.2557173E-005  1.5465784E-006  9.7426004E-007  1.2564755E-006  1.8135781E-005  7.0455117E-007  9.7855605E-007  1.1975799E-006  1.3115505E-006  9.1671325E-007  1.1929402E-006  8.1170758E-007  2.4842669E-006 -2.1737746E-006 -2.3651396E-006  8.1406369E-006  1.1165725E-005  4.6984528E-007  8.4785226E-007  7.9198371E-008  4.5647273E-007 -2.7498513E-007  1.2003704E-007 -5.4923761E-007  8.6032980E-007 -1.6736073E-007 -8.3282880E-007 -4.4018853E-007 -1.0525406E-006  2.5943771E-007 -1.4400834E-006 -1.5701385E-006 -1.2611848E-006 -1.8014907E-006 -1.4493130E-006 -1.9119873E-006 -2.2254076E-006 -2.2870105E-006 -2.5508643E-006 -2.5776321E-006 -2.5494737E-006 -1.6322079E-006 -2.5094366E-006  1.6455577E-006  6.2663966E-007  8.9701350E-007  5.0119889E-007  4.8846731E-007  2.1520664E-007  1.7285142E-007  2.4712710E-007 -2.8088983E-006 -2.7991773E-006 -2.5984627E-006 -2.7870130E-006 -2.9618179E-006 -2.9220935E-006  4.8030801E-007  2.4663352E-005  2.1821985E-005  2.7789350E-005  7.8556785E-007  7.3292881E-007  8.9812672E-007  1.3239476E-006  4.8887918E-007  7.3412768E-007  5.6500660E-007  9.8250618E-007  1.6959573E-006  1.3314431E-006  6.4861432E-007 -2.6168955E-006 -1.0929179E-006  7.1069144E-007  5.0705851E-007  5.9211157E-006  3.7480670E-006 -1.9086912E-006  1.2425083E-007  5.0914856E-007  2.0891913E-007  8.5272536E-006  9.4659397E-007  1.2450405E-007  8.0730493E-007  4.9975927E-007 -3.0765965E-006 -3.0099249E-006 -3.1371919E-006 -2.8818996E-006 -2.9434478E-006 -3.0593899E-006 -2.9714599E-006 -2.8717063E-006 -2.8747235E-006  4.7697444E-007  5.5997826E-007  5.4269727E-007  1.0461142E-006  1.6558096E-007  5.9940198E-007 -2.9662284E-006 -2.8495406E-006 -2.5310431E-006  7.2475166E-006  7.3881256E-006 -1.8545840E-006  5.7096567E-007  4.8429561E-007  1.5412239E-006  6.2782619E-007  9.5290198E-007  1.2029289E-007  3.5945954E-007 -1.0683695E-007  4.2701966E-007  1.1907600E-006  3.1277133E-007  1.7611931E-007  4.3133699E-007  2.3566119E-007  1.4621017E-006  2.1709211E-006 -5.8635899E-008 -6.3614448E-009  1.4910199E-005  1.2516538E-005  2.1553760E-006  5.9164219E-007  5.0662967E-007 -2.1976031E-006 -1.9789666E-006  5.2496397E-006 -1.3543596E-006  4.4928684E-006 -2.6541582E-006 -2.6889106E-006  2.5233991E-006 -6.3444478E-007  1.7003422E-005  1.3273352E-005  1.0859811E-006  1.4931551E-006  1.0850775E-006  1.2411177E-006  6.5272773E-006  9.6117979E-006 -2.9241524E-006  6.3673591E-007 -2.3281846E-007 -2.2451140E-007  3.1707872E-005  3.6885959E-005  3.1320327E-005 -1.0474321E-008 -2.4614952E-006  7.9317268E-006  3.3745843E-006  2.7200914E-006  6.3882389E-007 -2.3933986E-006  3.0135917E-006  6.6989015E-007  3.9146756E-007  1.5132402E-006 -2.6107192E-006 -2.7761921E-006  2.8719004E-007  4.0637239E-005  5.1491065E-008 -2.7050454E-006  6.5337771E-007  4.5551262E-007  4.1219964E-007  2.9703033E-007  3.1004231E-007  1.8241816E-007  1.8458275E-007  1.5512928E-006  2.5645071E-006  1.9671991E-006  1.1830833E-006  6.0974804E-007  1.6342275E-008 -4.0895271E-007 -2.8223962E-006 -3.0350930E-006 -2.8453408E-006 -2.5902115E-006 -2.2355203E-006 -2.9140664E-006 -2.9986841E-006 -1.2904414E-006 -3.2123378E-006  2.3663455E-006 -2.3804411E-006  2.5916391E-007  4.9907156E-008  2.9044236E-007  6.8335780E-007  1.5293030E-007  2.5644387E-006  3.5891388E-007  1.6830022E-007 -9.3261595E-007 -2.3067945E-006 -2.2898566E-006  2.4698714E-007  3.2503407E-007  8.7547981E-008  3.2079157E-007  9.0216440E-008 -2.5598668E-006  3.5213167E-007 -2.3721454E-006  3.5168903E-007 -3.4461263E-007 -7.4915937E-007  1.9385492E-006 -3.3005570E-006 -2.7110453E-007  1.0730311E-006  9.7534975E-006  1.2637707E-005  8.6883475E-006  1.1439789E-005 -6.7652152E-007  6.5730673E-008  5.4797736E-008  9.5773815E-008  6.5394090E-008  2.4927148E-006  3.9426730E-007  6.8842375E-006  4.7593346E-006  9.9266315E-007  2.0497523E-005  1.5521371E-005  2.2436806E-005  1.7432397E-005  1.1227369E-005  1.3403352E-005  1.9394282E-005  1.5268724E-005  2.1681067E-005  1.7284283E-005  2.4253489E-005  2.9376279E-005  9.9074498E-006  1.0662936E-005 -1.2127458E-006 -1.9078734E-006 -1.5846506E-006 -2.0120945E-006 -1.6168341E-006 -1.9854779E-006 -1.7880387E-006 -1.2228018E-006  6.9381234E-008  1.7287685E-007 -2.7622429E-007 -4.2458959E-007 -7.8902556E-007  8.5860903E-007 -8.9746177E-007 -3.8098101E-007 -3.3932944E-007 -1.8447373E-006 -3.0692399E-006 -2.0722554E-006 -3.1557857E-006 -3.1777360E-006  3.9017841E-006 -1.8618734E-006  1.4244997E-006  2.3226966E-006  4.2543506E-006  3.2017472E-006  2.4886782E-007  6.6556227E-007  1.3660721E-007  2.2619870E-007 -3.2206148E-006  1.6180369E-006  1.9749405E-006 -1.9212031E-006  8.3520109E-008 -3.0590609E-006 -3.0508136E-007  2.4698532E-005  1.5105308E-006 -1.4354168E-006  1.0274523E-005  1.8418347E-006  1.5513942E-005  1.3068962E-005  1.6236025E-005  2.1634994E-005  1.9857755E-005  2.5632395E-005  1.8421942E-005  1.1781887E-005  3.8169170E-006  2.4216665E-005  1.1048621E-005  2.8081284E-005  6.7071805E-006  9.1318374E-006  3.5054487E-006  3.8121704E-005  1.3902367E-005  4.7911365E-005  4.5953464E-005  2.5471302E-005  1.0125478E-005  1.6886365E-005  1.3460792E-005  2.1547821E-005  1.4066817E-005  1.7798074E-005  4.2440633E-005  2.8116931E-005  1.1680887E-005 -2.0130768E-006 -1.7863410E-006  2.9053885E-007  1.7675315E-007 -2.7870085E-006 -2.8526519E-006 -1.3079794E-006  6.7517437E-009  2.6090219E-008 -1.3726143E-006 -3.1030727E-006 -1.3281107E-006 -3.2600764E-006 -3.3553310E-006 -3.3457423E-006 -3.0915430E-006  1.7831875E-008  1.9335250E-008 -1.0279070E-006  3.5957236E-008  1.7194323E-007 -8.5105676E-007  2.8302833E-008  2.1614354E-008  2.0350888E-008  1.9972648E-007 -3.0026713E-007 -3.7993654E-007  2.5004747E-008  1.6680529E-009 -1.4822821E-007  1.2002595E-005 -1.5949840E-006 -2.7887064E-006  8.7234873E-006  4.7418626E-006  2.1289897E-006 -2.0414237E-006 -2.4844568E-006 -2.8303934E-006 -2.7430519E-006  2.9231869E-005  3.6060913E-005  1.4986722E-005 -2.8444301E-006  6.8851318E-006  1.4296091E-005  8.4698502E-006 -3.4045672E-006 -3.5316462E-007  3.1113983E-005  1.1926846E-006 -1.7094487E-007 -3.7155783E-007  1.8274371E-006  1.7417014E-007  4.2299469E-008  1.7090482E-007  1.4792243E-006 -1.3860486E-008 -1.5990688E-006  9.4602792E-008  1.7449857E-006 -4.4399671E-008  2.2923967E-006  1.7079431E-005 -3.5348718E-007 -2.7683670E-006  1.8562304E-006  1.0994838E-005 -5.2164950E-007  3.1825127E-007  1.2276375E-006  7.2961596E-007 -7.8609340E-007  3.0468301E-007  9.7463123E-006  1.5878433E-005 -2.3473553E-006  3.1056929E-005 -2.6599355E-006  7.6169149E-009 -2.2449372E-006  1.5899251E-006 -6.2414316E-008  2.1840358E-006  2.1339883E-006  4.2866631E-007  2.0