<?xml version="1.0"?>
<VTKFile type="UnstructuredGrid" version="0.1" byte_order="LittleEndian">
  <UnstructuredGrid>
    <Piece NumberOfPoints="3549" NumberOfCells="7431">
      <PointData>
        <DataArray type="Float64" Name="temperature" NumberOfComponents="1" format="ascii">
  5.0829322E+002  5.0824821E+002  5.0814482E+002  5.0841456E+002  4.4750553E+002  4.4746763E+002  4.4978647E+002  5.0500000E+002  5.0877168E+002  5.0679522E+002  5.0680316E+002  2.9315000E+002  2.9315000E+002  2.9315000E+002  2.9315000E+002  5.0840128E+002  5.0845844E+002  5.0413884E+002  5.0869470E+002  5.0816351E+002  5.0817965E+002  5.0819459E+002  5.0820847E+002  5.0822126E+002  5.0823301E+002  5.0824340E+002  5.0825253E+002  5.0825995E+002  5.0826541E+002  5.0826856E+002  5.0826896E+002  5.0826730E+002  5.0826422E+002  5.0826005E+002  5.0825483E+002  5.0840327E+002  5.0838016E+002  5.0835463E+002  5.0832844E+002  5.0830247E+002  5.0827711E+002  5.0825261E+002  5.0822913E+002  5.0820675E+002  5.0818554E+002  5.0816532E+002  4.4755813E+002  4.4767494E+002  4.4780801E+002  4.4794724E+002  4.4809044E+002  4.4823526E+002  4.4838176E+002  4.4852686E+002  4.4867181E+002  4.4881595E+002  4.4895942E+002  4.4910216E+002  4.4924366E+002  4.4938426E+002  4.4952345E+002  4.4965946E+002  5.0418809E+002  5.0355874E+002  5.0294531E+002  5.0229875E+002  5.0159059E+002  5.0078997E+002  4.9985952E+002  4.9875561E+002  4.9759962E+002  4.9645945E+002  4.9533381E+002  4.9422305E+002  4.9312680E+002  4.9204471E+002  4.9097698E+002  4.8992351E+002  4.8888392E+002  4.8785869E+002  4.8684760E+002  4.8585036E+002  4.8486709E+002  4.8389769E+002  4.8294223E+002  4.8200055E+002  4.8107284E+002  4.8015870E+002  4.7925833E+002  4.7837157E+002  4.7749851E+002  4.7663907E+002  4.7579333E+002  4.7496097E+002  4.7414216E+002  4.7333671E+002  4.7254477E+002  4.7176622E+002  4.7100122E+002  4.7024938E+002  4.6951092E+002  4.6878568E+002  4.6807380E+002  4.6737507E+002  4.6668972E+002  4.6601741E+002  4.6535833E+002  4.6471228E+002  4.6407941E+002  4.6345964E+002  4.6285314E+002  4.6225946E+002  4.6167895E+002  4.6111141E+002  4.6055704E+002  4.6001543E+002  4.5948685E+002  4.5897114E+002  4.5846842E+002  4.5797866E+002  4.5750172E+002  4.5703775E+002  4.5658680E+002  4.5614871E+002  4.5572342E+002  4.5531105E+002  4.5491154E+002  4.5452490E+002  4.5415114E+002  4.5379012E+002  4.5344208E+002  4.5310693E+002  4.5278478E+002  4.5247529E+002  4.5217856E+002  4.5189481E+002  4.5162388E+002  4.5136604E+002  4.5112122E+002  4.5088949E+002  4.5067087E+002  4.5046518E+002  4.5027278E+002  4.5009391E+002  4.4992998E+002  5.0877064E+002  5.0877168E+002  5.0877058E+002  5.0876907E+002  5.0876613E+002  5.0876231E+002  5.0875548E+002  5.0874984E+002  5.0874222E+002  5.0873278E+002  5.0872396E+002  5.0871304E+002  5.0870005E+002  5.0868490E+002  5.0866935E+002  5.0865120E+002  5.0863138E+002  5.0860722E+002  5.0857889E+002  5.0854876E+002  5.0851044E+002  5.0846297E+002  5.0840574E+002  5.0833764E+002  5.0825582E+002  5.0816247E+002  5.0806155E+002  5.0795072E+002  5.0783103E+002  5.0770498E+002  5.0757010E+002  5.0743024E+002  5.0728329E+002  5.0712886E+002  5.0696747E+002  5.0692882E+002  5.0697283E+002  5.0693282E+002  5.0828816E+002  5.0828307E+002  5.0827789E+002  5.0827256E+002  5.0826701E+002  5.0826118E+002  5.0825494E+002  5.0826812E+002  5.0824971E+002  5.0823366E+002  5.0821898E+002  5.0820515E+002  5.0819183E+002  5.0817879E+002  5.0816580E+002  5.0815272E+002  5.0813938E+002  5.0812566E+002  5.0811138E+002  5.0809641E+002  5.0808061E+002  5.0806382E+002  5.0804587E+002  5.0802659E+002  5.0800575E+002  5.0798318E+002  5.0795861E+002  5.0793175E+002  5.0790230E+002  5.0786989E+002  5.0783420E+002  5.0779452E+002  5.0775045E+002  5.0770133E+002  5.0764638E+002  5.0758432E+002  5.0751405E+002  5.0743398E+002  5.0734213E+002  5.0723534E+002  5.0711037E+002  5.0696164E+002  5.0677997E+002  5.0655515E+002  5.0625606E+002  5.0581714E+002  2.9607743E+002  2.9909496E+002  3.0229319E+002  3.0576139E+002  3.0964325E+002  3.1407692E+002  3.1924731E+002  3.2555877E+002  3.3334537E+002  3.4301891E+002  3.5271076E+002  3.6202393E+002  3.7112304E+002  3.8016561E+002  3.9025973E+002  4.0287163E+002  4.2123760E+002  2.9315000E+002  2.9315000E+002  2.9315000E+002  2.9315000E+002  2.9315000E+002  2.9315000E+002  2.9315000E+002  2.9315000E+002  2.9315000E+002  2.9315000E+002  2.9315000E+002  2.9315000E+002  2.9315000E+002  2.9315000E+002  2.9315000E+002  2.9315000E+002  2.9315000E+002  2.9315000E+002  2.9315000E+002  2.9315000E+002  2.9315000E+002  2.9315000E+002  2.9315000E+002  2.9315000E+002  2.9315000E+002  2.9315000E+002  2.9315000E+002  2.9315000E+002  2.9315000E+002  2.9315000E+002  2.9315000E+002  2.9315000E+002  2.9315000E+002  2.9315000E+002  2.9315000E+002  2.9315000E+002  2.9315000E+002  2.9315000E+002  2.9315000E+002  2.9315000E+002  2.9315000E+002  2.9315000E+002  2.9315000E+002  2.9315000E+002  2.9315000E+002  2.9315000E+002  2.9315000E+002  2.9315000E+002  2.9315000E+002  2.9315000E+002  2.9315000E+002  2.9315000E+002  5.0266476E+002  4.9436702E+002  4.8314447E+002  4.6798645E+002  4.4778776E+002  4.2134143E+002  3.8792969E+002  3.5446285E+002  3.2320191E+002  5.0697300E+002  5.0713444E+002  5.0728786E+002  5.0743501E+002  5.0757554E+002  5.0771041E+002  5.0783718E+002  5.0795752E+002  5.0807286E+002  5.0818128E+002  5.0828827E+002  5.0840160E+002  5.0840240E+002  5.0840365E+002  5.0840535E+002  5.0840745E+002  5.0840999E+002  5.0841290E+002  5.0841613E+002  5.0841968E+002  5.0842350E+002  5.0842748E+002  5.0843162E+002  5.0843590E+002  5.0844021E+002  5.0844458E+002  5.0844895E+002  5.0845321E+002  5.0845744E+002  5.0846151E+002  5.0846548E+002  5.0846926E+002  5.0847287E+002  5.0847629E+002  5.0847949E+002  5.0848248E+002  5.0848522E+002  5.0848776E+002  5.0849003E+002  5.0849207E+002  5.0849387E+002  5.0849541E+002  5.0849670E+002  5.0849773E+002  5.0849849E+002  5.0849901E+002  5.0849925E+002  5.0849924E+002  5.0849893E+002  5.0849834E+002  5.0849744E+002  5.0849622E+002  5.0849467E+002  5.0849274E+002  5.0849041E+002  5.0848762E+002  5.0848427E+002  5.0848024E+002  5.0847526E+002  5.0846867E+002  5.0844497E+002  5.0843414E+002  5.0842432E+002  5.0841505E+002  5.0840619E+002  5.0839757E+002  5.0838920E+002  5.0838104E+002  5.0837306E+002  5.0836525E+002  5.0835757E+002  5.0835004E+002  5.0834263E+002  5.0833533E+002  5.0832814E+002  5.0832103E+002  5.0831398E+002  5.0830699E+002  5.0830005E+002  5.0469150E+002  5.0453212E+002  5.0442105E+002  5.0433807E+002  5.0427370E+002  5.0422362E+002  5.0418706E+002  5.0416136E+002  5.0414498E+002  5.0452444E+002  5.0490480E+002  5.0528570E+002  5.0566798E+002  5.0605079E+002  5.0643680E+002  5.0682644E+002  5.0720371E+002  5.0749193E+002  5.0771335E+002  5.0789103E+002  5.0804058E+002  5.0817143E+002  5.0829005E+002  5.0841558E+002  5.0842966E+002  5.0844394E+002  5.0845869E+002  5.0847426E+002  5.0849104E+002  5.0850944E+002  5.0853013E+002  5.0855395E+002  5.0858217E+002  5.0861705E+002  5.0865613E+002  5.0869465E+002  5.0869493E+002  5.0869494E+002  5.0869396E+002  5.0869240E+002  5.0868990E+002  5.0868557E+002  5.0867986E+002  5.0867269E+002  5.0866416E+002  5.0865442E+002  5.0864380E+002  5.0863233E+002  5.0861957E+002  5.0860605E+002  5.0859177E+002  5.0857607E+002  5.0855909E+002  5.0854067E+002  5.0852073E+002  5.0849868E+002  5.0847502E+002  5.0844847E+002  4.4757570E+002  4.4769595E+002  4.4783433E+002  4.4798074E+002  4.4813113E+002  4.4828338E+002  4.4843618E+002  4.4858875E+002  4.4874074E+002  4.4889202E+002  4.4904252E+002  4.4919229E+002  4.4934154E+002  4.4949086E+002  4.4964147E+002  4.4979542E+002  4.4995543E+002  4.5012437E+002  4.5030421E+002  4.5049617E+002  4.5070089E+002  4.5091850E+002  4.5114898E+002  4.5139257E+002  4.5164921E+002  4.5191884E+002  4.5220147E+002  4.5249705E+002  4.5280564E+002  4.5312709E+002  4.5346134E+002  4.5380855E+002  4.5416871E+002  4.5454175E+002  4.5492771E+002  4.5532659E+002  4.5573838E+002  4.5616305E+002  4.5660069E+002  4.5705135E+002  4.5751482E+002  4.5799124E+002  4.5848070E+002  4.5898315E+002  4.5949855E+002  4.6002691E+002  4.6056829E+002  4.6112279E+002  4.6169018E+002  4.6227059E+002  4.6286420E+002  4.6347101E+002  4.6409077E+002  4.6472367E+002  4.6536983E+002  4.6602914E+002  4.6670167E+002  4.6738751E+002  4.6808646E+002  4.6879869E+002  4.6952430E+002  4.7026323E+002  4.7101553E+002  4.7178130E+002  4.7256034E+002  4.7335283E+002  4.7415889E+002  4.7497843E+002  4.7581152E+002  4.7665831E+002  4.7751851E+002  4.7839236E+002  4.7928002E+002  4.8018136E+002  4.8109646E+002  4.8202549E+002  4.8296814E+002  4.8392467E+002  4.8489525E+002  4.8587973E+002  4.8687823E+002  4.8789093E+002  4.8891751E+002  4.8995827E+002  4.9101333E+002  4.9208257E+002  4.9316613E+002  4.9426416E+002  4.9537626E+002  4.9650246E+002  4.9764245E+002  4.9879452E+002  4.9988944E+002  5.0080045E+002  5.0156665E+002  5.0222120E+002  5.0278845E+002  5.0328683E+002  5.0373251E+002  5.0884088E+002  5.0890223E+002  5.0887882E+002  5.0847088E+002  5.0840625E+002  5.0844324E+002  5.0810247E+002  5.0838187E+002  5.0847846E+002  5.0575437E+002  5.0793202E+002  5.0762546E+002  5.0707174E+002  5.0835614E+002  5.0803000E+002  5.0847497E+002  5.0815974E+002  5.0833741E+002  5.0847571E+002  5.0705170E+002  5.0839267E+002  5.0832329E+002  5.0782766E+002  5.0833036E+002  5.0820004E+002  5.0740055E+002  5.0845781E+002  5.0492593E+002  5.0842174E+002  5.0464158E+002  5.0781173E+002  5.0842257E+002  5.0587269E+002  5.0823881E+002  5.0846764E+002  5.0831147E+002  5.0798605E+002  5.0773769E+002  5.0837465E+002  5.0806895E+002  5.0830534E+002  5.0834005E+002  5.0813130E+002  5.0847843E+002  5.0835383E+002  5.0837660E+002  5.0667982E+002  5.0848047E+002  5.0847457E+002  5.0845256E+002  5.0452363E+002  5.0811060E+002  5.0511178E+002  5.0845849E+002  5.0827038E+002  5.0831521E+002  5.0667867E+002  5.0688208E+002  5.0731353E+002  5.0719712E+002  5.0682430E+002  5.0708112E+002  5.0743984E+002  5.0738307E+002  5.0710764E+002  5.0738261E+002  5.0714241E+002  5.0741872E+002  5.0761178E+002  5.0764041E+002  5.0746043E+002  5.0765219E+002  5.0783411E+002  5.0785175E+002  5.0773059E+002  5.0788785E+002  5.0779087E+002  5.0792496E+002  5.0801568E+002  5.0803366E+002  5.0796370E+002  5.0805745E+002  5.0799826E+002  5.0808277E+002  5.0813527E+002  5.0816411E+002  5.0810523E+002  5.0817188E+002  5.0822698E+002  5.0822886E+002  5.0818284E+002  5.0823484E+002  5.0819534E+002  5.0824258E+002  5.0828346E+002  5.0828661E+002  5.0825063E+002  5.0828873E+002  5.0832472E+002  5.0832277E+002  5.0829282E+002  5.0812701E+002  5.0811122E+002  5.0828096E+002  5.0835857E+002  5.0835236E+002  5.0764758E+002  5.0828111E+002  5.0835673E+002  5.0768912E+002  5.0764309E+002  5.0682711E+002  5.0688959E+002  5.0837968E+002  5.0814646E+002  5.0816056E+002  5.0769709E+002  5.0837402E+002  5.0835156E+002  5.0819340E+002  5.0819397E+002  5.0839805E+002  5.0832539E+002  5.0783856E+002  5.0649895E+002  5.0833682E+002  5.0757184E+002  5.0790759E+002  5.0663100E+002  5.0839123E+002  5.0841193E+002  5.0840702E+002  5.0811776E+002  5.0763223E+002  5.0776941E+002  5.0794469E+002  5.0813117E+002  5.0825932E+002  5.0825826E+002  5.0790880E+002  5.0794836E+002  5.0787224E+002  5.0790914E+002  5.0809945E+002  5.0840516E+002  5.0826625E+002  5.0820430E+002  5.0749116E+002  5.0743226E+002  5.0733392E+002  5.0692315E+002  5.0800112E+002  5.0796493E+002  5.0649260E+002  5.0828899E+002  5.0833834E+002  5.0838802E+002  5.0829736E+002  5.0807647E+002  5.0805729E+002  5.0796906E+002  5.0793633E+002  5.0836843E+002  5.0836233E+002  5.0615316E+002  5.0613977E+002  5.0673412E+002  5.0816501E+002  5.0842313E+002  5.0814111E+002  5.0817120E+002  5.0834770E+002  5.0831465E+002  5.0843253E+002  5.0839795E+002  5.0839848E+002  5.0836010E+002  5.0838975E+002  5.0784387E+002  5.0779979E+002  5.0814967E+002  5.0817728E+002  5.0784555E+002  5.0800445E+002  5.0827835E+002  5.0821963E+002  5.0813724E+002  5.0815436E+002  5.0823850E+002  5.0817586E+002  5.0830676E+002  5.0579173E+002  5.0579414E+002  5.0578965E+002  5.0542271E+002  5.0545504E+002  5.0582088E+002  5.0550426E+002  5.0728246E+002  5.0716712E+002  5.0826244E+002  5.0719626E+002  5.0587606E+002  5.0835698E+002  5.0838523E+002  5.0841489E+002  5.0841038E+002  5.0809632E+002  5.0806997E+002  5.0794530E+002  5.0805163E+002  5.0813331E+002  5.0792852E+002  5.0803528E+002  5.0814589E+002  5.0642918E+002  5.0791733E+002  5.0803674E+002  5.0801604E+002  5.0802937E+002  5.0809084E+002  5.0840582E+002  5.0738704E+002  5.0838131E+002  5.0808179E+002  5.0810969E+002  5.0656623E+002  5.0841522E+002  5.0843144E+002  5.0812589E+002  5.0774697E+002  5.0819897E+002  5.0820362E+002  5.0818308E+002  5.0820770E+002  5.0823412E+002  5.0823161E+002  5.0821138E+002  5.0823429E+002  5.0825395E+002  5.0825669E+002  5.0827632E+002  5.0828109E+002  5.0829843E+002  5.0826024E+002  5.0827987E+002  5.0826286E+002  5.0824191E+002  5.0821412E+002  5.0829661E+002  5.0831557E+002  5.0831686E+002  5.0833152E+002  5.0835714E+002  5.0826332E+002  5.0805379E+002  5.0817984E+002  5.0828315E+002  5.0829661E+002  5.0617055E+002  5.0645521E+002  5.0839262E+002  5.0791911E+002  5.0773980E+002  5.0807197E+002  5.0836331E+002  5.0778037E+002  5.0772994E+002  5.0832918E+002  5.0843703E+002  5.0843176E+002  5.0840707E+002  5.0842763E+002  5.0840523E+002  5.0842506E+002  5.0831686E+002  5.0826794E+002  5.0836222E+002  5.0836847E+002  5.0822211E+002  5.0832987E+002  5.0782385E+002  5.0684509E+002  5.0842735E+002  5.0824886E+002  5.0558645E+002  5.0516961E+002  5.0799958E+002  5.0797499E+002  5.0782888E+002  5.0844543E+002  5.0844362E+002  5.0622223E+002  5.0833182E+002  5.0831804E+002  5.0834419E+002  5.0834580E+002  5.0835708E+002  5.0836017E+002  5.0725789E+002  5.0834394E+002  5.0831521E+002  5.0819223E+002  5.0824526E+002  5.0796859E+002  5.0801051E+002  5.0771219E+002  5.0766424E+002  5.0838725E+002  5.0836726E+002  5.0820972E+002  5.0817959E+002  5.0785704E+002  5.0844420E+002  5.0842185E+002  5.0845055E+002  5.0829671E+002  5.0823443E+002  5.0751256E+002  5.0747104E+002  5.0757410E+002  5.0753522E+002  5.0829847E+002  5.0812279E+002  5.0822923E+002  5.0824533E+002  5.0815303E+002  5.0767096E+002  5.0812217E+002  5.0812953E+002  5.0813902E+002  5.0822053E+002  5.0539397E+002  5.0539831E+002  5.0588004E+002  5.0629213E+002  5.0800526E+002  5.0842907E+002  5.0502588E+002  5.0801504E+002  5.0818838E+002  5.0816568E+002  5.0815720E+002  5.0837798E+002  5.0841245E+002  5.0619344E+002  5.0646281E+002  5.0840025E+002  5.0840802E+002  5.0838679E+002  5.0819577E+002  5.0788319E+002  5.0791068E+002  5.0715057E+002  5.0718944E+002  5.0809003E+002  5.0808038E+002  5.0756518E+002  5.0836997E+002  5.0832716E+002  5.0842110E+002  5.0844229E+002  5.0845117E+002  5.0843177E+002  5.0845506E+002  5.0830282E+002  5.0820618E+002  5.0505817E+002  5.0510318E+002  5.0736440E+002  5.0832603E+002  5.0835148E+002  5.0844102E+002  5.0822088E+002  5.0822577E+002  5.0824565E+002  5.0846276E+002  5.0802546E+002  5.0845467E+002  5.0844948E+002  5.0843877E+002  5.0476034E+002  5.0805543E+002  5.0828742E+002  5.0752664E+002  5.0830892E+002  5.0782439E+002  5.0700233E+002  5.0674536E+002  5.0687228E+002  5.0834501E+002  5.0837394E+002  5.0811787E+002  5.0800154E+002  5.0539399E+002  5.0832898E+002  5.0839100E+002  5.0842091E+002  5.0834022E+002  5.0812595E+002  5.0809417E+002  5.0798485E+002  5.0722734E+002  5.0827432E+002  5.0829668E+002  5.0838918E+002  5.0829976E+002  5.0840903E+002  5.0738325E+002  5.0764385E+002  5.0625874E+002  5.0473630E+002  5.0491531E+002  5.0825507E+002  5.0826626E+002  5.0827138E+002  5.0825186E+002  5.0819507E+002  5.0549190E+002  5.0786216E+002  5.0789397E+002  5.0793317E+002  5.0845878E+002  5.0847043E+002  5.0842242E+002  5.0846327E+002  5.0806080E+002  5.0841935E+002  5.0843290E+002  5.0842482E+002  5.0838394E+002  5.0838529E+002  5.0828776E+002  5.0840224E+002  5.0800882E+002  5.0795952E+002  5.0805013E+002  5.0831147E+002  5.0831767E+002  5.0843475E+002  5.0768174E+002  5.0811814E+002  5.0778464E+002  5.0808633E+002  5.0831480E+002  5.0833165E+002  5.0832013E+002  5.0836511E+002  5.0756045E+002  5.0814874E+002  5.0847651E+002  5.0838373E+002  5.0817518E+002  5.0847932E+002  5.0834715E+002  5.0847771E+002  5.0834915E+002  5.0837677E+002  5.0825392E+002  5.0847376E+002  5.0841014E+002  5.0846752E+002  5.0844060E+002  5.0846479E+002  5.0796513E+002  5.0775521E+002  5.0780264E+002  5.0822680E+002  5.0820394E+002  5.0845743E+002  5.0698280E+002  5.0730402E+002  5.0681474E+002  5.0796437E+002  5.0764499E+002  5.0838383E+002  5.0467039E+002  5.0812471E+002  5.0841210E+002  5.0807431E+002  5.0739830E+002  5.0847523E+002  5.0846194E+002  5.0842161E+002  5.0833310E+002  5.0823114E+002  5.0819229E+002  5.0753743E+002  5.0812136E+002  5.0748515E+002  5.0819389E+002  5.0839616E+002  5.0844521E+002  5.0823581E+002  5.0613739E+002  5.0651476E+002  5.0833281E+002  5.0833339E+002  5.0845207E+002  5.0592597E+002  5.0795396E+002  5.0803637E+002  5.0822435E+002  5.0832419E+002  5.0614316E+002  5.0500005E+002  5.0838359E+002  5.0587207E+002  5.0840812E+002  5.0448807E+002  5.0783029E+002  5.0813830E+002  5.0832855E+002  5.0690130E+002  5.0828637E+002  5.0532334E+002  5.0827348E+002  5.0832435E+002  5.0778996E+002  5.0831041E+002  5.0801895E+002  5.0790008E+002  5.0822232E+002  5.0827189E+002  5.0833599E+002  5.0817088E+002  5.0810707E+002  5.0845902E+002  5.0806877E+002  5.0829602E+002  5.0832923E+002  5.0777199E+002  5.0840448E+002  5.0760793E+002  5.0731832E+002  5.0835452E+002  5.0805531E+002  5.0651729E+002  5.0840176E+002  5.0818324E+002  5.0843979E+002  5.0828853E+002  5.0817448E+002  5.0782469E+002  5.0797718E+002  5.0829961E+002  5.0834114E+002  5.0847375E+002  5.0485750E+002  5.0820798E+002  5.0805321E+002  5.0703187E+002  5.0835917E+002  5.0712362E+002  5.0703108E+002  5.0838745E+002  5.0806993E+002  5.0786235E+002  5.0644281E+002  5.0825611E+002  5.0846313E+002  5.0836658E+002  5.0835525E+002  5.0820902E+002  5.0830692E+002  5.0834860E+002  5.0613250E+002  5.0828579E+002  5.0799208E+002  5.0844870E+002  5.0846401E+002  5.0837799E+002  5.0798513E+002  5.0782246E+002  5.0747859E+002  5.0843213E+002  5.0466971E+002  5.0838238E+002  5.0844551E+002  5.0768592E+002  5.0758239E+002  5.0843700E+002  5.0819364E+002  5.0714873E+002  5.0845360E+002  5.0843697E+002  5.0846531E+002  5.0835956E+002  5.0823650E+002  5.0646705E+002  5.0670768E+002  5.0840636E+002  5.0821737E+002  5.0761121E+002  5.0801362E+002  5.0828323E+002  5.0845504E+002  5.0848408E+002  5.0841172E+002  5.0443417E+002  5.0445081E+002  5.0845875E+002  5.0817567E+002  5.0745670E+002  5.0825024E+002  5.0831984E+002  5.0567252E+002  5.0777324E+002  5.0820843E+002  5.0842990E+002  5.0837091E+002  5.0829351E+002  5.0790325E+002  5.0825096E+002  5.0836391E+002  5.0833792E+002  5.0821214E+002  5.0814802E+002  5.0766038E+002  5.0806330E+002  5.0612268E+002  5.0838074E+002  5.0821331E+002  5.0845367E+002  5.0805295E+002  5.0826250E+002  5.0792963E+002  5.0830488E+002  5.0843043E+002  5.0843725E+002  5.0838508E+002  5.0834794E+002  5.0845060E+002  5.0847007E+002  5.0848617E+002  5.0849673E+002  5.0850203E+002  5.0850059E+002  5.0849126E+002  5.0831905E+002  5.0829291E+002  5.0847537E+002  5.0843595E+002  5.0827250E+002  5.0856908E+002  5.0856857E+002  5.0842261E+002  5.0827783E+002  5.0830410E+002  5.0841187E+002  5.0828085E+002  5.0850066E+002  5.0824224E+002  5.0860447E+002  5.0852052E+002  5.0864408E+002  5.0866206E+002  5.0841678E+002  5.0827361E+002  5.0823150E+002  5.0826810E+002  5.0846513E+002  5.0835362E+002  5.0866396E+002  5.0862751E+002  5.0848033E+002  5.0830534E+002  5.0849647E+002  5.0848465E+002  5.0833335E+002  5.0836905E+002  5.0842851E+002  5.0850187E+002  5.0844342E+002  5.0845868E+002  5.0850061E+002  5.0847809E+002  5.0849300E+002  5.0821440E+002  5.0843591E+002  5.0865964E+002  5.0819008E+002  5.0843766E+002  5.0826412E+002  5.0841387E+002  5.0827033E+002  5.0828026E+002  5.0828283E+002  5.0828936E+002  5.0828690E+002  5.0829561E+002  5.0829836E+002  5.0830519E+002  5.0830737E+002  5.0831602E+002  5.0831718E+002  5.0832621E+002  5.0832752E+002  5.0833957E+002  5.0833913E+002  5.0835175E+002  5.0835138E+002  5.0836582E+002  5.0836472E+002  5.0838253E+002  5.0837942E+002  5.0839939E+002  5.0839374E+002  5.0841739E+002  5.0841297E+002  5.0838594E+002  5.0840550E+002  5.0837769E+002  5.0839628E+002  5.0836814E+002  5.0838659E+002  5.0835709E+002  5.0837510E+002  5.0841921E+002  5.0843834E+002  5.0844335E+002  5.0845829E+002  5.0846373E+002  5.0847652E+002  5.0848087E+002  5.0847221E+002  5.0849457E+002  5.0849687E+002  5.0832662E+002  5.0834544E+002  5.0842658E+002  5.0848347E+002  5.0849763E+002  5.0836617E+002  5.0851206E+002  5.0851361E+002  5.0850235E+002  5.0851544E+002  5.0850449E+002  5.0851522E+002  5.0852821E+002  5.0852897E+002  5.0851830E+002  5.0852954E+002  5.0851943E+002  5.0852800E+002  5.0854031E+002  5.0853956E+002  5.0854277E+002  5.0852883E+002  5.0853785E+002  5.0855036E+002  5.0854572E+002  5.0856121E+002  5.0855639E+002  5.0854350E+002  5.0855096E+002  5.0853901E+002  5.0854514E+002  5.0836266E+002  5.0849345E+002  5.0852753E+002  5.0833484E+002  5.0855961E+002  5.0855161E+002  5.0857483E+002  5.0853691E+002  5.0854295E+002  5.0855806E+002  5.0854793E+002  5.0856491E+002  5.0855319E+002  5.0853830E+002  5.0854133E+002  5.0855777E+002  5.0854429E+002  5.0852841E+002  5.0853056E+002  5.0854728E+002  5.0853090E+002  5.0855056E+002  5.0853359E+002  5.0853054E+002  5.0851579E+002  5.0851735E+002  5.0841552E+002  5.0833955E+002  5.0833297E+002  5.0852600E+002  5.0851481E+002  5.0851455E+002  5.0855295E+002  5.0831149E+002  5.0839372E+002  5.0856318E+002  5.0831708E+002  5.0838042E+002  5.0852771E+002  5.0849533E+002  5.0849943E+002  5.0850209E+002  5.0857622E+002  5.0858549E+002  5.0851756E+002  5.0850228E+002  5.0856565E+002  5.0852043E+002  5.0835969E+002  5.0851931E+002  5.0848588E+002  5.0852695E+002  5.0850328E+002  5.0852032E+002  5.0848752E+002  5.0848452E+002  5.0850172E+002  5.0829277E+002  5.0850228E+002  5.0848600E+002  5.0851347E+002  5.0851626E+002  5.0830448E+002  5.0834553E+002  5.0828992E+002  5.0830817E+002  5.0841282E+002  5.0839857E+002  5.0849963E+002  5.0848692E+002  5.0848719E+002  5.0848844E+002  5.0847105E+002  5.0847115E+002  5.0851209E+002  5.0851750E+002  5.0843643E+002  5.0851356E+002  5.0847912E+002  5.0847629E+002  5.0854643E+002  5.0854457E+002  5.0852169E+002  5.0851434E+002  5.0851853E+002  5.0836643E+002  5.0849188E+002  5.0851186E+002  5.0851417E+002  5.0851153E+002  5.0850160E+002  5.0850968E+002  5.0850086E+002  5.0850937E+002  5.0828475E+002  5.0828995E+002  5.0827706E+002  5.0829124E+002  5.0846987E+002  5.0846693E+002  5.0846032E+002  5.0845777E+002  5.0845033E+002  5.0844861E+002  5.0844088E+002  5.0845667E+002  5.0843943E+002  5.0843069E+002  5.0842985E+002  5.0842109E+002  5.0843882E+002  5.0842153E+002  5.0841275E+002  5.0841165E+002  5.0840278E+002  5.0840203E+002  5.0839254E+002  5.0839241E+002  5.0838333E+002  5.0838310E+002  5.0837456E+002  5.0839130E+002  5.0839170E+002  5.0829762E+002  5.0847300E+002  5.0850801E+002  5.0850732E+002  5.0847558E+002  5.0847430E+002  5.0845716E+002  5.0845664E+002  5.0845767E+002  5.0837401E+002  5.0836582E+002  5.0836649E+002  5.0835810E+002  5.0835727E+002  5.0834989E+002  5.0847573E+002  5.0843229E+002  5.0844498E+002  5.0841696E+002  5.0849261E+002  5.0850647E+002  5.0850771E+002  5.0851528E+002  5.0850176E+002  5.0851841E+002  5.0851177E+002  5.0851578E+002  5.0852204E+002  5.0851947E+002  5.0851307E+002  5.0835852E+002  5.0840210E+002  5.0851202E+002  5.0848293E+002  5.0826383E+002  5.0827620E+002  5.0841383E+002  5.0844347E+002  5.0851923E+002  5.0847039E+002  5.0825058E+002  5.0851543E+002  5.0845536E+002  5.0853609E+002  5.0850062E+002  5.0834914E+002  5.0834205E+002  5.0835647E+002  5.0834278E+002  5.0833506E+002  5.0833411E+002  5.0832736E+002  5.0832819E+002  5.0832080E+002  5.0850805E+002  5.0850522E+002  5.0848250E+002  5.0849092E+002  5.0848598E+002  5.0849295E+002  5.0831973E+002  5.0831358E+002  5.0829473E+002  5.0859889E+002  5.0861384E+002  5.0842179E+002  5.0849286E+002  5.0849327E+002  5.0852200E+002  5.0850096E+002  5.0849805E+002  5.0850298E+002  5.0850164E+002  5.0850364E+002  5.0850968E+002  5.0850625E+002  5.0846515E+002  5.0850833E+002  5.0848238E+002  5.0847285E+002  5.0844403E+002  5.0845891E+002  5.0842909E+002  5.0841225E+002  5.0856853E+002  5.0856677E+002  5.0852714E+002  5.0848397E+002  5.0853447E+002  5.0828260E+002  5.0827715E+002  5.0859277E+002  5.0839079E+002  5.0825158E+002  5.0830210E+002  5.0829946E+002  5.0852928E+002  5.0845366E+002  5.0856639E+002  5.0853420E+002  5.0850850E+002  5.0851710E+002  5.0853553E+002  5.0855552E+002  5.0858182E+002  5.0861248E+002  5.0831204E+002  5.0849996E+002  5.0849579E+002  5.0848857E+002  5.0845243E+002  5.0844267E+002  5.0840097E+002  5.0850735E+002  5.0835198E+002  5.0853985E+002  5.0849008E+002  5.0847551E+002  5.0851256E+002  5.0836696E+002  5.0850775E+002  5.0849325E+002  5.0848602E+002  5.0851878E+002  5.0830439E+002  5.0831579E+002  5.0846624E+002  5.0842121E+002  5.0850661E+002  5.0832492E+002  5.0848662E+002  5.0847334E+002  5.0847197E+002  5.0845990E+002  5.0846081E+002  5.0844871E+002  5.0844828E+002  5.0849981E+002  5.0826193E+002  5.0828730E+002  5.0827421E+002  5.0829730E+002  5.0828474E+002  5.0830805E+002  5.0838230E+002  5.0837311E+002  5.0839011E+002  5.0839860E+002  5.0839984E+002  5.0839675E+002  5.0836499E+002  5.0843199E+002  5.0836494E+002  5.0853349E+002  5.0828749E+002  5.0850673E+002  5.0850273E+002  5.0850433E+002  5.0850954E+002  5.0844556E+002  5.0853406E+002  5.0850013E+002  5.0849486E+002  5.0844365E+002  5.0841350E+002  5.0842092E+002  5.0849351E+002  5.0851020E+002  5.0850808E+002  5.0846373E+002  5.0847351E+002  5.0829199E+002  5.0847443E+002  5.0828394E+002  5.0850789E+002  5.0850341E+002  5.0850000E+002  5.0852659E+002  5.0835580E+002  5.0846387E+002  5.0850271E+002  5.0855593E+002  5.0858141E+002  5.0855974E+002  5.0858674E+002  5.0848258E+002  5.0843107E+002  5.0842983E+002  5.0844252E+002  5.0844111E+002  5.0852013E+002  5.0849382E+002  5.0862702E+002  5.0860273E+002  5.0826178E+002  5.0856703E+002  5.0852834E+002  5.0855549E+002  5.0851920E+002  5.0849149E+002  5.0848447E+002  5.0850893E+002  5.0847552E+002  5.0849852E+002  5.0846687E+002  5.0848742E+002  5.0851994E+002  5.0845268E+002  5.0850623E+002  5.0827952E+002  5.0829520E+002  5.0829297E+002  5.0831041E+002  5.0830676E+002  5.0829268E+002  5.0832780E+002  5.0831961E+002  5.0845267E+002  5.0844951E+002  5.0850533E+002  5.0850369E+002  5.0846759E+002  5.0860006E+002  5.0829269E+002  5.0833380E+002  5.0849865E+002  5.0842974E+002  5.0832589E+002  5.0829153E+002  5.0834130E+002  5.0833260E+002  5.0843733E+002  5.0837986E+002  5.0863630E+002  5.0861203E+002  5.0863477E+002  5.0859674E+002  5.0851997E+002  5.0848567E+002  5.0847187E+002  5.0848372E+002  5.0834906E+002  5.0855126E+002  5.0857792E+002  5.0827849E+002  5.0848255E+002  5.0831752E+002  5.0847737E+002  5.0854419E+002  5.0850479E+002  5.0827634E+002  5.0840514E+002  5.0831229E+002  5.0842481E+002  5.0834946E+002  5.0833574E+002  5.0835196E+002  5.0832095E+002  5.0833731E+002  5.0828947E+002  5.0831989E+002  5.0832872E+002  5.0838369E+002  5.0826408E+002  5.0846498E+002  5.0823867E+002  5.0822681E+002  5.0830179E+002  5.0853839E+002  5.0864924E+002  5.0845929E+002  5.0840398E+002  5.0861659E+002  5.0865372E+002  5.0864901E+002  5.0861391E+002  5.0863669E+002  5.0821007E+002  5.0825805E+002  5.0850010E+002  5.0836866E+002  5.0823512E+002  5.0827541E+002  5.0826997E+002  5.0848585E+002  5.0848612E+002  5.0830664E+002  5.0830434E+002  5.0844747E+002  5.0841575E+002  5.0842811E+002  5.0848820E+002  5.0831219E+002  5.0849377E+002  5.0832630E+002  5.0834021E+002  5.0837720E+002  5.0838150E+002  5.0842553E+002  5.0843163E+002  5.0849946E+002  5.0843994E+002  5.0845209E+002  5.0850131E+002  5.0844703E+002  5.0846261E+002  5.0845458E+002  5.0846502E+002  5.0849943E+002  5.0850173E+002  5.0846663E+002  5.0847355E+002  5.0849519E+002  5.0861984E+002  5.0826258E+002  5.0832257E+002  5.0819971E+002  5.0822761E+002  5.0851167E+002  5.0838246E+002  5.0830063E+002  5.0833571E+002  5.0834322E+002  5.0859331E+002  5.0838744E+002  5.0830557E+002  5.0829890E+002  5.0846051E+002  5.0827676E+002  5.0859268E+002  5.0836115E+002  5.0837061E+002  5.0849830E+002  5.0851831E+002  5.0850536E+002  5.0850443E+002  5.0852475E+002  5.0849911E+002  5.0842911E+002  5.0845484E+002  5.0853420E+002  5.0850472E+002  5.0837913E+002  5.0843615E+002  5.0852312E+002  5.0848270E+002  5.0848318E+002  5.0859862E+002  5.0841444E+002  5.0835059E+002  5.0852564E+002  5.0818498E+002  5.0849976E+002  5.0846212E+002  5.0857748E+002  5.0850098E+002  5.0827633E+002  5.0850027E+002  5.0851300E+002  5.0861229E+002  5.0837472E+002  5.0858106E+002  5.0840500E+002  5.0842259E+002  5.0831178E+002  5.0851869E+002  5.0848872E+002  5.0852500E+002  5.0849858E+002  5.0847522E+002  5.0847510E+002  5.0843783E+002  5.0844940E+002  5.0846320E+002  5.0827319E+002  5.0846454E+002  5.0858560E+002  5.0848998E+002  5.0856923E+002  5.0847195E+002  5.0842759E+002  5.0849815E+002  5.0848452E+002  5.0851283E+002  5.0851801E+002  5.0842035E+002  5.0857045E+002  5.0827161E+002  5.0853343E+002  5.0854078E+002  5.0851000E+002  5.0844799E+002  5.0853290E+002  5.0853424E+002  5.0835251E+002  5.0852785E+002  5.0857448E+002  5.0845000E+002  5.0857095E+002  5.0850018E+002  5.0832371E+002  5.0849443E+002  5.0828792E+002  5.0852982E+002  5.0843618E+002  5.0841836E+002  5.0845718E+002  5.0849056E+002  5.0852183E+002  5.0856178E+002  5.0857972E+002  5.0855251E+002  5.0839340E+002  5.0841113E+002  5.0856545E+002  5.0851072E+002  5.0852672E+002  5.0850187E+002  5.0841797E+002  5.0845783E+002  5.0832347E+002  5.0828492E+002  5.0856688E+002  5.0842434E+002  5.0849046E+002  5.0840179E+002  5.0855552E+002  5.0834560E+002  5.0837628E+002  5.0850809E+002  5.0830008E+002  5.0830888E+002  5.08