<?xml version="1.0"?>
<VTKFile type="UnstructuredGrid" version="0.1" byte_order="LittleEndian">
  <UnstructuredGrid>
    <Piece NumberOfPoints="3701" NumberOfCells="7795">
      <PointData>
        <DataArray type="Float64" Name="potential re" NumberOfComponents="1" format="ascii">
 -2.8008948E-006 -1.1148220E-006  1.4781271E-005  6.4236953E-005 -3.3614435E-010  4.6000601E-008  9.1901362E-008 -6.7567253E-008  2.6031603E-008  8.0018902E-005  6.1586665E-005  8.0743297E-005  1.0354038E-004  1.0293690E-004  7.8769064E-005  2.8622434E-027  6.4499137E-028  6.4496984E-028  2.8274208E-027 -9.7330567E-011 -1.3626580E-006  4.4379145E-011 -1.6997256E-008  1.2390862E-005  1.0093837E-005  8.0326661E-006  6.2073542E-006  4.5962031E-006  3.2208059E-006  2.0526496E-006  1.1198652E-006  3.6257914E-007 -2.1732587E-007 -6.4753634E-007 -9.0337417E-007 -1.0448327E-006 -1.1213483E-006 -1.1531718E-006 -1.1498002E-006  5.5380862E-005  4.7626819E-005  4.0875692E-005  3.5074832E-005  3.0146867E-005  2.6080903E-005  2.2741482E-005  2.0038228E-005  1.7965492E-005  1.6417040E-005  1.5395551E-005  5.4276003E-008  6.1904238E-008  6.7762321E-008  7.2987330E-008  7.5647027E-008  7.7290364E-008  7.7727101E-008  7.8120750E-008  7.6440451E-008  7.5070018E-008  7.4815955E-008  7.3621927E-008  7.4702913E-008  7.5195091E-008  7.5194551E-008  8.1073523E-008 -7.2486326E-008 -7.9332507E-008 -8.8087618E-008 -9.8659920E-008 -1.1092175E-007 -1.2526866E-007 -1.4094730E-007 -1.5777686E-007 -1.7146320E-007 -1.8180794E-007 -1.8665841E-007 -1.9030175E-007 -1.9352297E-007 -1.8830829E-007 -1.8475366E-007 -1.8052528E-007 -1.7093120E-007 -1.6365897E-007 -1.5508659E-007 -1.4507465E-007 -1.3410993E-007 -1.2317869E-007 -1.1404616E-007 -1.0113832E-007 -9.1667062E-008 -7.9885824E-008 -6.9630937E-008 -5.8039219E-008 -4.7799332E-008 -3.9938747E-008 -3.1614569E-008 -2.1780632E-008 -1.5693448E-008 -5.4293212E-009  2.4353017E-009  9.4902271E-009  1.2271243E-008  2.1317534E-008  2.8112570E-008  3.4828637E-008  3.7766680E-008  4.4173327E-008  4.7925900E-008  5.3043180E-008  5.4695132E-008  5.9978183E-008  6.3614888E-008  6.6700734E-008  6.5955111E-008  7.0703243E-008  7.3524294E-008  7.5600591E-008  7.4049245E-008  7.7481170E-008  7.8975924E-008  7.9752408E-008  8.0883984E-008  7.9974705E-008  8.2260190E-008  8.3097928E-008  8.3244343E-008  8.1769545E-008  8.3522878E-008  8.3908104E-008  8.3892390E-008  8.3650873E-008  8.2000516E-008  8.3131564E-008  8.2902975E-008  8.2509434E-008  8.1714533E-008  8.0026504E-008  8.1037843E-008  8.1369955E-008  8.1670264E-008  8.1362612E-008  8.0227652E-008  7.9525626E-008  7.8438340E-008  7.8019056E-008  7.7249397E-008  7.9583851E-008  8.3285819E-008  5.8887683E-006  1.2032183E-005  1.8093597E-005  2.4258285E-005  3.0560290E-005  3.6841927E-005  4.3073295E-005  4.9388652E-005  5.5324826E-005  6.1141853E-005  6.6325016E-005  7.1247444E-005  7.5764460E-005  7.9895493E-005  8.3633521E-005  8.7140072E-005  9.0331525E-005  9.3240759E-005  9.5898743E-005  9.8300697E-005  1.0041186E-004  1.0225398E-004  1.0379962E-004  1.0496222E-004  1.0573425E-004  1.0606072E-004  1.0587235E-004  1.0511609E-004  1.0385262E-004  1.0206363E-004  9.9688011E-005  9.6705700E-005  9.3210971E-005  8.9100241E-005  8.4760758E-005  7.5027950E-005  7.0276385E-005  6.5808037E-005  9.3628005E-005  1.0425543E-004  1.1281426E-004  1.2004229E-004  1.2628937E-004  1.3184752E-004  1.3663740E-004  1.4090415E-004  1.4454531E-004  1.4768094E-004  1.5032570E-004  1.5252342E-004  1.5420330E-004  1.5544391E-004  1.5625453E-004  1.5654087E-004  1.5633808E-004  1.5559049E-004  1.5428700E-004  1.5241599E-004  1.4984236E-004  1.4657941E-004  1.4256941E-004  1.3759171E-004  1.3151826E-004  1.2402679E-004  1.1491164E-004  1.0602745E-004  1.1440142E-004  1.2357983E-004  1.3078687E-004  1.3675644E-004  1.4159999E-004  1.4559743E-004  1.4868391E-004  1.5103425E-004  1.5276319E-004  1.5387538E-004  1.5443197E-004  1.5443638E-004  1.5394662E-004  1.5297465E-004  1.5159637E-004  1.4978141E-004  1.4748079E-004  1.4476338E-004  1.4161341E-004  1.3795624E-004  1.3377968E-004  1.2902973E-004  1.2357775E-004  1.1742129E-004  1.1029781E-004  1.0187482E-004  9.1458342E-005  8.2750288E-005  6.3763439E-005  6.5754715E-005  6.7541231E-005  6.9001310E-005  7.0095724E-005  7.0819182E-005  7.1097485E-005  7.0846608E-005  7.0082809E-005  6.8764170E-005  6.6851653E-005 -2.6105217E-006 -2.4302440E-006 -2.2519236E-006 -2.0670647E-006 -1.8703746E-006 -1.6533736E-006 -1.4056969E-006 -2.8146427E-006 -2.7670617E-006 -2.6731431E-006 -2.5454300E-006 -2.3929035E-006 -2.2288072E-006 -2.0536421E-006 -1.8802661E-006 -1.7091482E-006 -1.5447876E-006 -1.3891280E-006 -1.2449399E-006 -1.1114733E-006 -9.9067842E-007 -8.8128097E-007 -7.8328485E-007 -6.9630952E-007 -6.1979276E-007 -5.5238392E-007 -4.9344401E-007 -4.4205256E-007 -3.9736518E-007 -3.5843028E-007 -3.2447651E-007 -2.9498792E-007 -2.6913410E-007 -2.4639222E-007 -2.2619144E-007 -2.0811407E-007 -1.9182357E-007 -1.7694115E-007 -1.6314071E-007 -1.5024930E-007 -1.3806483E-007 -1.2629703E-007 -1.1479058E-007 -1.0342903E-007 -9.1969285E-008 -8.0149134E-008 -7.5852902E-008 -9.6671359E-008 -1.2253406E-007  2.4258035E-008  4.5022678E-007 -3.1593300E-008 -1.1869170E-007 -2.5852580E-007 -3.8082647E-007  1.5829896E-027  1.1944493E-027  9.7857038E-028  8.4715480E-028  7.6863732E-028  6.8373346E-028  6.5684938E-028  6.0539185E-028  5.7421129E-028  5.4511621E-028  5.2031227E-028  4.9638418E-028  4.7775664E-028  4.5284270E-028  4.3470107E-028  4.3921559E-028  4.3843499E-028  4.3479189E-028  4.3580421E-028  4.4006344E-028  4.2785159E-028  4.2850636E-028  4.4394448E-028  4.4560407E-028  4.4574629E-028  4.4587659E-028  4.4603681E-028  4.4610972E-028  4.4637638E-028  4.4632272E-028  4.4632799E-028  4.4619216E-028  4.4632003E-028  4.4626194E-028  4.4623940E-028  4.4629235E-028  4.4625115E-028  4.3613066E-028  4.4870001E-028  4.7497635E-028  4.9012569E-028  5.1789073E-028  5.4379429E-028  5.7405326E-028  6.0997278E-028  6.5212452E-028  6.8513877E-028  7.5754937E-028  8.5540062E-028  9.9043247E-028  1.2048310E-027  1.5869399E-027 -9.1724761E-010  9.2074119E-011  2.6849408E-010  6.2958496E-010 -2.6171357E-010  2.9891440E-009 -4.5006811E-010 -3.0962445E-009 -9.2799423E-010  1.1686748E-009  4.7759050E-009 -1.5908971E-009  2.3241914E-009  5.4256398E-010  4.0244998E-010  1.5870366E-010 -1.1483158E-011 -7.7105069E-009 -1.5194609E-008 -2.2566005E-008 -2.9995388E-008 -3.7113322E-008 -4.4560567E-008 -5.1865585E-008 -5.9645368E-008 -6.7586671E-008 -7.5655408E-008 -8.3741888E-008 -9.2232542E-008 -1.0093705E-007 -1.0995042E-007 -1.2046937E-007 -1.3093517E-007 -1.4161289E-007 -1.5465322E-007 -1.6778520E-007 -1.8214207E-007 -1.9812989E-007 -2.1672794E-007 -2.3965445E-007 -2.6086061E-007 -2.8732559E-007 -3.1802380E-007 -3.5352585E-007 -3.9337570E-007 -4.3998778E-007 -4.9141841E-007 -5.5066579E-007 -6.1723009E-007 -6.9241245E-007 -7.7646125E-007 -8.7054349E-007 -9.7224065E-007 -1.0798714E-006 -1.1995470E-006 -1.3234423E-006 -1.4494477E-006 -1.5747822E-006 -1.6978032E-006 -1.8115203E-006 -1.9070972E-006 -1.9698086E-006 -1.9926792E-006 -1.9656034E-006 -1.8630091E-006 -1.6644772E-006 -1.9804548E-006 -2.4642671E-006 -2.8267190E-006 -3.0905087E-006 -3.2797113E-006 -3.4079300E-006 -3.4886641E-006 -3.5354016E-006 -3.5555123E-006 -3.5556569E-006 -3.5412297E-006 -3.5165840E-006 -3.4839988E-006 -3.4425353E-006 -3.3911570E-006 -3.3267618E-006 -3.2437542E-006 -3.1347099E-006 -2.9901318E-006 -5.4706314E-008 -4.2401847E-008 -3.1472448E-008 -2.2178632E-008 -1.4834706E-008 -9.2766908E-009 -5.3391411E-009 -2.7602973E-009 -1.1140731E-009  6.5796055E-011  4.6281526E-011  4.8864457E-011  7.7226481E-011  3.4647176E-010  2.3732507E-010  4.1413796E-010 -1.1060066E-010 -6.7536232E-011 -9.7164156E-011 -8.7852508E-011 -2.2442255E-010  1.3971218E-010  3.0765873E-010 -6.4609784E-010 -4.1764156E-012  3.3270034E-010  8.4046820E-011 -6.2381658E-011 -1.2167515E-009 -4.9186687E-009 -2.4302683E-009 -7.3578753E-009 -1.3905531E-008 -1.7491894E-008  2.5205968E-008  2.9454713E-006  5.8892304E-006  8.8269077E-006  1.1765432E-005  1.4646839E-005  1.7573895E-005  2.0365491E-005  2.3148753E-005  2.5869496E-005  2.8513095E-005  3.1078234E-005  3.3565674E-005  3.5973808E-005  3.8338068E-005  4.0658369E-005  4.2996123E-005  4.5359528E-005  4.7779448E-005  5.0282141E-005  5.2876506E-005  5.5569598E-005  5.8387821E-005  6.1297423E-005 -1.2979192E-009 -6.6284862E-010 -1.3167222E-009 -2.0580834E-009 -2.7967082E-009 -2.4086112E-009 -1.3730335E-009 -2.5401496E-009 -2.3328865E-009 -2.3444887E-009 -1.8124563E-009 -1.2518269E-009 -1.0190059E-009 -8.3231073E-010 -6.0904523E-010 -4.3597884E-010 -2.7473107E-010 -1.7552608E-010 -1.5787179E-010 -1.7951387E-010 -1.7776271E-010 -1.6082869E-010 -1.6280257E-010 -1.2279417E-010 -1.2146738E-010 -1.2671511E-010 -1.2826033E-010 -1.4188307E-010 -1.5082148E-010 -1.3205296E-010 -1.1186697E-010 -6.6520308E-011 -6.2925713E-011 -6.6910550E-011 -6.5736927E-011 -5.4384412E-011 -4.9528891E-011 -5.3132725E-011 -4.3968485E-011  1.3509299E-011  1.4572817E-011  3.2350219E-011  4.2574725E-011  5.9229719E-011  7.0683667E-011  8.2922617E-011  1.0298555E-010  1.7701858E-010  1.8140885E-010  1.9095179E-010  2.1960448E-010  3.0016940E-010  3.0837070E-010  3.1974784E-010  3.4591362E-010  3.8877822E-010  4.3448244E-010  5.3753194E-010  5.5807841E-010  5.6535417E-010  6.0498026E-010  6.8218309E-010  7.5044859E-010  8.6990467E-010  8.9864497E-010  8.9324503E-010  9.4707735E-010  1.0538822E-009  1.1440424E-009  1.2809663E-009  1.3148051E-009  1.2833677E-009  1.3469946E-009  1.4852415E-009  1.6004335E-009  1.7323162E-009  1.7682118E-009  1.6863302E-009  1.7377802E-009  1.8789124E-009  2.0011764E-009  2.0718236E-009  2.0604506E-009  1.8941582E-009  1.9006803E-009  1.9782735E-009  2.0518130E-009  1.9841198E-009  1.9017118E-009  1.5767858E-009  1.2897354E-009  8.3945607E-010  6.3039144E-010  4.6413855E-010  2.2700500E-010  1.5206716E-010  6.8037238E-011  5.3593321E-011  2.1054238E-011 -2.4543958E-008  4.1648587E-009  6.3920958E-008 -8.2400800E-007 -3.1163773E-007 -4.7778149E-007 -1.0424651E-006 -1.9999529E-007 -1.7799179E-006 -7.0566077E-008 -3.9592764E-007 -2.0460664E-007 -1.2760845E-007 -3.6476082E-006 -6.3539278E-007 -1.2508623E-006 -1.6690941E-006 -1.5571167E-007 -2.3666027E-006 -2.6221130E-008 -3.6692613E-006 -3.4759567E-006 -2.9159856E-007 -9.9417992E-008 -2.2450080E-006 -1.6209434E-007 -6.5363738E-007 -3.6780924E-008 -3.9497005E-007 -1.4029928E-008 -2.4411049E-008 -3.2879693E-006 -5.8889625E-009 -2.7790290E-006 -2.6032441E-006 -5.5844144E-008 -4.9932773E-007 -2.4123211E-007 -3.7005344E-006 -8.1334067E-007 -3.3397302E-006 -3.5699314E-006 -1.3208068E-006 -2.0687351E-006 -1.8671498E-007 -2.7259460E-007 -1.0239674E-007 -1.4373229E-006 -9.9761957E-007 -5.4725905E-007 -5.6276766E-009 -2.9610161E-008 -2.9307378E-009 -2.3937732E-006 -2.9890187E-006 -2.3148324E-008 -1.7296694E-008 -4.5157794E-008 -6.5988915E-008 -8.8368561E-008 -6.1308769E-008 -9.6609696E-008 -1.3949195E-007 -1.5206226E-007 -1.1158613E-007 -1.6198299E-007 -1.1783072E-007 -1.6668964E-007 -2.2493964E-007 -2.2830572E-007 -1.6393333E-007 -2.1002477E-007 -3.0911919E-007 -2.9709941E-007 -2.1157413E-007 -2.8583318E-007 -2.0092401E-007 -2.6966292E-007 -3.7874225E-007 -3.5881167E-007 -2.6005033E-007 -3.4597967E-007 -2.5994981E-007 -3.4609367E-007 -4.5711733E-007 -4.9130502E-007 -3.6682220E-007 -5.0949253E-007 -6.6969136E-007 -7.0904580E-007 -5.8062853E-007 -8.0994943E-007 -7.1297651E-007 -9.8455302E-007 -1.1385205E-006 -1.3707979E-006 -1.2397902E-006 -1.6648927E-006 -1.8429798E-006 -2.1694819E-006 -2.0232431E-006 -4.9848321E-007 -4.9364949E-007 -8.9559967E-007 -2.3409808E-006 -2.6879480E-006 -1.9955652E-007 -8.4086602E-007 -1.9871670E-006 -1.7427519E-007 -1.6201215E-007 -8.2738235E-008 -8.8968194E-008 -2.8236121E-006 -5.3771739E-007 -6.8100119E-007 -1.6145465E-007 -3.1469113E-006 -3.0446730E-006 -5.8463750E-007 -5.6848760E-007 -3.1989760E-006 -1.0242984E-006 -2.2271534E-007 -6.4923554E-008 -9.7325137E-007 -1.4258343E-007 -1.9409739E-007 -7.5071662E-008 -3.4699131E-006 -3.4450033E-006 -2.8767871E-006 -5.5647370E-007 -1.5135444E-007 -1.5040130E-007 -1.5610549E-007 -6.9725028E-007 -6.2660604E-007 -6.5762683E-007 -2.0861721E-007 -2.2435606E-007 -1.9999111E-007 -2.2581092E-007 -4.4766505E-007 -3.6558988E-006 -5.8787253E-007 -5.4925263E-007 -1.3611754E-007 -1.2965397E-007 -1.2022718E-007 -9.1121269E-008 -2.3095818E-007 -2.6291334E-007 -5.9464511E-008 -8.2180409E-007 -8.9991479E-007 -3.6762652E-006 -7.9901563E-007 -4.8391411E-007 -3.9753415E-007 -2.4753266E-007 -2.6099417E-007 -1.1020086E-006 -1.1931245E-006 -4.9917328E-008 -4.3092892E-008 -8.3291981E-008 -8.3210070E-007 -3.5489479E-006 -8.6227993E-007 -1.0066426E-006 -8.4380457E-007 -6.6364673E-007 -3.3112979E-006 -1.2001721E-006 -1.3462905E-006 -1.3065017E-006 -1.4888363E-006 -2.1407251E-007 -1.8971254E-007 -1.0453098E-006 -1.2104655E-006 -1.2200609E-007 -1.2085751E-007 -5.4223437E-007 -5.1928378E-007 -5.0021673E-007 -4.8380683E-007 -4.7869900E-007 -4.5782112E-007 -7.0826239E-007 -3.8640265E-008 -3.1577568E-008 -4.6018406E-008 -2.9253279E-008 -2.2837597E-008 -2.5541433E-008 -1.7170873E-008 -1.2100289E-007 -1.1007262E-007 -6.9101865E-007 -1.0966636E-007 -1.9828342E-008 -1.4345595E-006 -1.6506172E-006 -1.6371214E-006 -1.8329893E-006 -2.5320824E-007 -2.9226757E-007 -2.9194316E-007 -3.2847718E-007 -2.1522045E-007 -3.1724068E-007 -3.5846786E-007 -3.5159969E-007 -7.2422682E-008 -3.3690139E-007 -4.4155398E-007 -3.6970747E-007 -3.2185813E-007 -1.4282449E-007 -1.0851122E-006 -1.3437180E-007 -8.9746198E-007 -4.4036841E-007 -7.5135020E-007 -8.3095668E-008 -3.6841398E-006 -3.4930900E-006 -3.8870862E-007 -1.6634504E-007 -1.1853170E-006 -1.4078069E-006 -1.4373402E-006 -1.6567000E-006 -1.6808182E-006 -1.9235071E-006 -1.9045445E-006 -2.1913950E-006 -2.2391360E-006 -2.5152269E-006 -2.5830155E-006 -2.8995140E-006 -2.9537697E-006 -2.7719019E-006 -3.0610514E-006 -2.9488855E-006 -2.6753650E-006 -2.1276836E-006 -2.6727204E-006 -3.0492409E-006 -3.2676791E-006 -3.3645634E-006 -1.6155226E-006 -4.3316359E-007 -5.2593669E-007 -2.6442210E-007 -3.1897266E-006 -3.2795891E-006 -3.0438681E-008 -5.1416527E-008 -8.1017447E-007 -9.1189041E-008 -9.1845775E-008 -8.5783846E-008 -7.8357413E-007 -2.0835164E-007 -1.8492855E-007 -5.4476490E-007 -1.7293386E-006 -1.9583607E-006 -2.0434796E-006 -2.1978869E-006 -2.2817071E-006 -2.4541718E-006 -2.7894989E-006 -3.0713836E-006 -6.7513646E-007 -6.0436742E-007 -3.5794744E-007 -1.2282135E-006 -2.7413562E-007 -9.2311276E-008 -1.2455936E-006 -3.0902315E-007 -1.2384212E-008 -1.0438450E-008 -4.1219879E-007 -3.5069857E-007 -2.3853876E-007 -2.2885284E-006 -2.5750110E-006 -2.2854373E-008 -3.5066946E-006 -3.4074685E-006 -3.5725169E-006 -3.4717444E-006 -3.6559399E-006 -3.5853476E-006 -1.2954577E-007 -4.8094955E-007 -4.2247353E-007 -1.8857713E-006 -6.9877406E-007 -3.8554872E-007 -5.9424648E-008 -2.0607955E-007 -1.8300444E-007 -2.5790406E-006 -3.7059339E-006 -3.9998625E-007 -3.0655605E-007 -2.0069930E-007 -1.5166593E-006 -1.4687939E-006 -1.3445218E-006 -3.3867677E-007 -2.4222206E-006 -1.4129356E-007 -1.4959557E-007 -1.5539477E-007 -1.6787560E-007 -4.8222631E-007 -4.1750605E-007 -2.1241922E-007 -1.7204956E-007 -1.8349666E-007 -1.6463408E-007 -9.1255257E-007 -1.0795540E-006 -1.0545923E-007 -1.1241348E-007 -3.6902047E-008 -4.6157403E-008 -5.5364653E-008 -6.3157787E-008 -3.9895873E-007 -1.1190102E-006 -2.8204513E-008 -4.9055966E-007 -1.6593914E-006 -1.4756560E-006 -1.2689505E-006 -9.7682171E-007 -9.0885275E-007 -7.3885881E-008 -8.7936167E-008 -3.7620345E-006 -3.7035445E-006 -3.7742588E-006 -2.0684436E-006 -2.4743233E-007 -2.8832851E-007 -1.1710073E-007 -1.1812483E-007 -6.0021871E-007 -6.8959264E-007 -1.6051914E-007 -3.4232288E-006 -6.0161633E-007 -3.1710764E-006 -3.0221611E-006 -3.0429763E-006 -2.8875903E-006 -2.6827294E-006 -3.1877275E-006 -9.1068794E-007 -2.1257747E-008 -1.5902908E-008 -1.4617942E-007 -2.5838589E-006 -3.3361355E-006 -3.3146664E-006 -2.4148142E-006 -2.5669404E-006 -2.8285263E-006 -1.5247384E-006 -2.7169170E-007 -2.0070613E-006 -3.1237668E-006 -3.2409599E-006 -1.0331677E-008 -1.7688509E-007 -3.2467736E-006 -1.1954692E-007 -7.7423624E-007 -1.8276047E-007 -9.6819625E-008 -9.5405625E-008 -1.0638511E-007 -3.6227565E-006 -3.6782861E-006 -4.2394964E-007 -3.9366110E-007 -5.7352681E-008 -1.5788257E-006 -5.1347999E-007 -4.7452323E-007 -3.5781213E-007 -5.8121795E-008 -8.2198735E-007 -2.8296041E-007 -1.3938890E-007 -3.1158769E-006 -3.2420202E-006 -3.1271822E-007 -3.3439713E-006 -7.1047322E-007 -3.1281284E-008 -3.0226474E-008 -1.2072750E-008 -1.9992480E-009 -5.3742006E-009 -1.5685773E-006 -1.9611603E-006 -2.4322074E-007 -6.9789024E-007 -5.9276715E-007 -4.0444154E-009 -2.7948170E-007 -3.1622091E-007 -3.4138136E-007 -2.9240462E-006 -2.5862121E-006 -3.5381656E-006 -2.5618346E-006 -3.1870265E-007 -8.1626275E-007 -6.9886726E-007 -6.0176373E-007 -7.0374166E-007 -4.4697953E-007 -1.0128946E-006 -3.6086496E-006 -5.6193898E-007 -4.4488594E-007 -7.1848122E-007 -3.9485439E-008 -7.0722261E-008 -3.0275643E-006 -2.2082629E-007 -1.1767671E-006 -2.6520619E-007 -9.1890873E-007 -3.4161290E-006 -3.5268386E-006 -3.4771205E-006 -3.6807390E-006 -1.8873925E-007 -1.4899944E-006 -2.2307277E-006 -3.6960105E-006 -1.8671575E-006 -1.9116369E-006 -1.6914984E-007 -1.6363041E-006 -2.2110218E-007 -2.3891459E-007 -2.9088803E-006 -8.9817084E-007 -3.4715709E-007 -7.5764362E-007 -9.7348514E-007 -6.9161171E-007 -2.8206234E-008 -1.7452194E-007 -2.9915886E-007 -1.4175254E-006 -6.9422839E-008 -1.7504494E-006 -1.0426283E-007 -1.2634579E-007 -7.6747374E-008 -3.9687805E-007 -2.2392447E-007 -1.8424627E-006 -2.1016729E-008 -4.6798273E-007 -3.4805647E-006 -3.6896922E-007 -1.3029100E-007 -1.1041202E-006 -2.2721600E-006 -2.7110403E-006 -1.3719628E-007 -6.7283287E-007 -5.8198563E-007 -8.8425268E-008 -5.0311630E-007 -1.7481274E-007 -1.0004127E-006 -3.7612839E-006 -2.5639518E-006 -1.7324032E-008 -8.2164609E-008 -3.8706477E-008 -3.1875078E-006 -1.1626196E-007 -1.0964570E-006 -1.3503441E-008 -3.0282096E-007 -5.7356009E-007 -2.6103705E-006 -8.5156404E-008 -3.6622582E-008 -4.7400957E-008 -2.0508153E-006 -6.4053692E-008 -5.5716068E-007 -2.9690837E-009 -2.5207077E-007 -1.2429088E-006 -1.1226403E-006 -1.1578031E-007 -3.8370425E-007 -6.9582468E-009 -2.2942817E-006 -1.3234939E-006 -2.8228274E-007 -3.4159014E-006 -3.8095620E-007 -3.5676635E-007 -1.1936386E-006 -2.1539631E-007 -3.0055275E-006 -1.6336534E-006 -9.5261521E-007 -2.7834680E-006 -4.5079694E-007 -2.3767395E-006 -3.5325263E-006 -2.3131203E-007 -6.1661704E-007 -1.8359730E-007 -1.5207965E-007 -4.2799194E-007 -6.5792360E-007 -2.6418232E-008 -2.5334889E-007 -2.0307423E-006 -8.7283222E-007 -3.1120522E-006 -1.5058290E-007 -5.8453213E-008 -3.9167203E-007 -2.9718164E-007 -7.4434303E-007 -2.4604498E-006 -7.8487240E-009 -6.0940137E-007 -4.4569361E-007 -1.0068392E-007 -1.7999335E-006 -1.0659897E-007 -1.1650198E-007 -3.7611795E-006 -7.3846157E-007 -3.2010282E-007 -9.4100625E-008 -2.9599163E-006 -2.4001035E-006 -3.7271605E-006 -3.6763339E-006 -2.4106254E-006 -3.3407579E-006 -3.6075367E-006 -6.4928768E-008 -2.5993443E-007 -3.2138352E-007 -2.8864358E-006 -2.0761002E-006 -3.7697207E-006 -4.4737424E-007 -2.6407164E-007 -1.5441942E-007 -3.1994023E-007 -2.7679159E-008 -2.2797253E-006 -4.1523213E-007 -1.1508105E-007 -6.1511007E-008 -8.1038285E-007 -5.7676710E-007 -1.2569974E-007 -1.2021892E-006 -3.8126129E-007 -5.3761768E-007 -3.8888582E-007 -8.3425771E-008 -4.5011726E-008 -6.2249648E-008 -2.5586302E-006 -4.1038228E-008 -1.7001544E-007 -2.7954512E-007 -2.9784017E-006 -2.1040540E-006 -1.2627376E-006 -9.9465025E-007 -1.2738178E-009 -8.6188757E-009 -4.5129907E-007 -1.7731763E-006 -1.6003965E-007 -1.4476360E-007 -1.0743273E-008 -8.5117362E-009 -1.7921335E-007 -4.2963605E-007 -3.2977116E-006 -5.1213726E-007 -3.1652293E-006 -3.4798702E-007 -1.9995151E-006 -3.5151907E-006 -3.5813502E-006 -2.2398808E-006 -1.3664945E-006 -1.9932473E-007 -6.0640053E-007 -5.4477048E-008 -1.0452273E-006 -2.4040865E-006 -9.9128809E-007 -2.0502572E-007 -1.1922808E-007 -3.5419034E-007 -7.3366301E-007 -1.3410348E-006 -1.8914113E-006 -3.2874513E-006 -3.3733576E-006  2.1958738E-008  1.2619014E-008 -3.8478673E-008 -2.0229334E-007 -4.7238143E-007 -9.3318087E-007 -1.3589167E-006 -3.1901332E-006 -2.6751762E-006 -1.1096232E-006  2.7477285E-008 -3.1669308E-007  3.3436459E-005  5.0344930E-007  1.5514030E-008 -2.1890904E-006  2.4101694E-005 -2.7785542E-006 -1.4854385E-006  1.3027136E-007  2.9898946E-006  2.7256967E-005  4.0474126E-005  1.9259093E-005  8.2709003E-006  8.5579359E-009 -1.4995692E-006  1.5605103E-005 -1.8254361E-006  5.4154579E-008  3.3055808E-005  1.3237976E-005  2.3636157E-005  4.5151841E-005 -2.9839227E-006 -1.1744122E-006 -1.3581677E-006 -3.3100807E-006 -3.3756738E-006  1.9350490E-008 -7.4866156E-007  3.1492283E-008  2.2622892E-008 -3.4895811E-007  1.6853863E-008 -1.2889634E-007  6.6113639E-006  1.9416520E-008  3.4561769E-006  1.2887003E-005  5.0690041E-005 -1.4896275E-006  2.6461784E-009 -1.5604784E-006 -1.8647741E-006 -1.8267243E-006 -2.1111527E-006 -2.1410064E-006 -2.3265847E-006 -2.3024050E-006 -2.4916178E-006 -2.4298683E-006 -2.5972334E-006 -2.4945307E-006 -2.5942485E-006 -2.4693441E-006 -2.5187100E-006 -2.3340596E-006 -2.2722108E-006 -2.0323555E-006 -1.8316690E-006 -1.5145535E-006 -1.0875999E-006 -6.9729514E-007  7.6430378E-008  5.3053800E-007  1.6509695E-006  2.4922274E-006  1.1029126E-006  3.4826490E-006  2.0310955E-006  4.7131644E-006  3.2426333E-006  6.3028512E-006  4.7393346E-006  8.1502692E-006  8.7368586E-007  2.7430588E-006  2.1238992E-006  3.9525015E-006  3.5306738E-006  5.2189530E-006  4.6714925E-006  5.7571065E-006  6.6476633E-006  5.7576312E-006 -2.3173554E-006  6.6452962E-006  6.8437325E-007  3.9423720E-006  4.8004737E-006 -2.1614429E-006  6.8576123E-006  6.0090677E-006  4.3456529E-006  5.2743230E-006  3.7740926E-006  4.3530292E-006  6.2114781E-006  5.4052496E-006  3.8320697E-006  4.6636645E-006  3.2723907E-006  3.7762638E-006  5.4380946E-006  4.6871695E-006  7.3670251E-006  3.2694904E-006  3.9693211E-006  5.4841860E-006  4.4134007E-006  6.2019765E-006  5.1497969E-006  3.7614196E-006  4.2352706E-006  3.1025617E-006  3.4818720E-006  1.0388239E-005  3.0161448E-006  2.6912672E-006 -2.6944504E-006  4.7262893E-006  3.8224046E-006  7.1906008E-006  2.7052964E-006  3.0404871E-006  4.0893994E-006  3.2291529E-006  4.2769303E-006  3.3508229E-006  2.5655360E-006  2.6005509E-006  3.3554955E-006  2.5755741E-006  1.9640170E-006  1.9493088E-006  2.4853681E-006  1.8093624E-006  2.3299885E-006  1.6909754E-006  2.2085929E-006  1.3134549E-006  1.2195202E-006  8.4078579E-006  2.2189778E-006  8.9840517E-006  1.8918806E-006  1.4394850E-006  1.4439168E-006  2.0573423E-006 -2.6140200E-006  1.2561751E-005  3.0113360E-006  5.8198402E-006  1.5123608E-005  8.1604956E-006  2.5179335E-006  9.1062542E-007  8.7260908E-007  5.4369481E-006  5.5772487E-006  1.0721185E-006  7.6440549E-007  7.3875521E-006  2.1180421E-006  1.8603886E-007  1.6789626E-006  1.8997840E-006  9.2626126E-006  1.0745125E-006  1.5299919E-006  6.1553894E-007  5.0360489E-007  6.2929399E-007 -2.3476636E-006  1.0031716E-006  4.2716425E-007  1.1385447E-006  1.1938358E-006  8.2671666E-006 -1.7939568E-006  5.6064381E-006 -2.3432749E-006  1.8043648E-005  2.0910214E-005  9.6937185E-007  7.0275336E-007  7.1237423E-007  1.4665256E-006  3.3596284E-007  2.7730848E-007  7.4268168E-007  1.2823118E-006  5.7202714E-006  1.4920012E-006  9.1003598E-007  1.3302163E-006  1.1075333E-005  1.2556536E-005  1.5465050E-006  9.7417854E-007  1.2563752E-006  1.8136377E-005  7.0461407E-007  9.7852053E-007  1.1975693E-006  1.3116300E-006  9.1676697E-007  1.1929956E-006  8.1174227E-007  2.4840292E-006 -2.1711604E-006 -2.3628189E-006  8.1511421E-006  1.1174230E-005  4.6986099E-007  8.4792264E-007  7.9291068E-008  4.5662914E-007 -2.7480274E-007  1.2029146E-007 -5.4895361E-007  8.6053923E-007 -1.6699136E-007 -8.3241984E-007 -4.3968013E-007 -1.0519882E-006  2.5988731E-007 -1.4396441E-006 -1.5695567E-006 -1.2604705E-006 -1.8007580E-006 -1.4484067E-006 -1.9110264E-006 -2.2246176E-006 -2.2860096E-006 -2.5500417E-006 -2.5766064E-006 -2.5488375E-006 -1.6310617E-006 -2.5071464E-006  1.6456013E-006  6.2641135E-007  8.9678351E-007  5.0127376E-007  4.8854327E-007  2.1524975E-007  1.7288624E-007  2.4717632E-007 -2.8080571E-006 -2.7981305E-006 -2.5972189E-006 -2.7857466E-006 -2.9607583E-006 -2.9208141E-006  4.8037789E-007  2.4661366E-005  2.1820523E-005  2.7786652E-005  7.8564731E-007  7.3290363E-007  8.9812295E-007  1.3239612E-006  4.8895559E-007  7.3423923E-007  5.6480556E-007  9.8231901E-007  1.6957662E-006  1.3312770E-006  6.4844425E-007 -2.6154137E-006 -1.0918599E-006  7.1058730E-007  5.0711604E-007  5.9323578E-006  3.7568960E-006 -1.9082419E-006  1.2428222E-007  5.0922839E-007  2.0895641E-007  8.5420441E-006  9.4647133E-007  1.2452949E-007  8.0743081E-007  4.9974163E-007 -3.0755372E-006 -3.0086390E-006 -3.1363370E-006 -2.8803931E-006 -2.9419279E-006 -3.0580954E-006 -2.9699339E-006 -2.8699453E-006 -2.8729588E-006  4.7688603E-007  5.5993434E-007  5.4260236E-007  1.0459685E-006  1.6544792E-007  5.9923217E-007 -2.9646961E-006 -2.8477804E-006 -2.5289905E-006  7.2478328E-006  7.3887625E-006 -1.8542581E-006  5.7099934E-007  4.8431429E-007  1.5411023E-006  6.2782623E-007  9.5300858E-007  1.2006799E-007  3.5924030E-007 -1.0706228E-007  4.2689531E-007  1.1905326E-006  3.1282943E-007  1.7591024E-007  4.3138398E-007  2.3570102E-007  1.4626024E-006  2.1712018E-006 -5.8031003E-008 -5.2770494E-009  1.4909380E-005  1.2515808E-005  2.1552021E-006  5.9171225E-007  5.0671054E-007 -2.1952494E-006 -1.9763320E-006  5.2501458E-006 -1.3530252E-006  4.5034752E-006 -2.6521431E-006 -2.6871033E-006  2.5231986E-006 -6.3434077E-007  1.7002543E-005  1.3272728E-005  1.0860158E-006  1.4932097E-006  1.0852402E-006  1.2413141E-006  6.5273358E-006  9.6119596E-006 -2.9225973E-006  6.3652742E-007 -2.3302419E-007 -2.2467396E-007  3.1704530E-005  3.6881397E-005  3.1316604E-005 -1.0673604E-008 -2.4595212E-006  7.9312595E-006  3.3744976E-006  2.7201535E-006  6.3868366E-007 -2.3919466E-006  3.0133613E-006  6.6993955E-007  3.9149903E-007  1.5133962E-006 -2.6084631E-006 -2.7741894E-006  2.8724395E-007  4.0631385E-005  5.1348920E-008 -2.7027816E-006  6.5347249E-007  4.5558692E-007  4.1226893E-007  2.9708802E-007  3.1010207E-007  1.8246527E-007  1.8462854E-007  1.5510976E-006  2.5730978E-006  1.9745540E-006  1.1907424E-006  6.1622742E-007  2.3383171E-008 -4.0319530E-007 -2.8217406E-006 -3.0344222E-006 -2.8448428E-006 -2.5897376E-006 -2.2349114E-006 -2.9137066E-006 -2.9978271E-006 -1.2901491E-006 -3.2116949E-006  2.3664013E-006 -2.3783473E-006  2.5905577E-007  4.9813551E-008  2.9036591E-007  6.8328850E-007  1.5296813E-007  2.5643558E-006  3.5887956E-007  1.6827204E-007 -9.3243051E-007 -2.3064650E-006 -2.2896307E-006  2.4697406E-007  3.2484783E-007  8.7376488E-008  3.2085175E-007  9.0179738E-008 -2.5580584E-006  3.5218376E-007 -2.3702730E-006  3.5146610E-007 -3.4483507E-007 -7.4938686E-007  1.9386662E-006 -3.2998895E-006 -2.7107406E-007  1.0731369E-006  9.7529145E-006  1.2636946E-005  8.6878237E-006  1.1439139E-005 -6.7665594E-007  6.5757636E-008  5.4819346E-008  9.5797992E-008  6.5410913E-008  2.4924566E-006  3.9427123E-007  6.8851665E-006  4.7599834E-006  1.0008486E-006  2.0496479E-005  1.5520632E-005  2.2435587E-005  1.7431503E-005  1.1227075E-005  1.3402913E-005  1.9393166E-005  1.5268122E-005  2.1679636E-005  1.7283456E-005  2.4251651E-005  2.9373927E-005  9.9076284E-006  1.0662583E-005 -1.2059397E-006 -1.9027870E-006 -1.5785235E-006 -2.0073064E-006 -1.6113459E-006 -1.9812227E-006 -1.7838242E-006 -1.2178390E-006  6.9395955E-008  1.7292423E-007 -2.7641163E-007 -4.2476280E-007 -7.8905403E-007  8.5877063E-007 -8.9091218E-007 -3.7658546E-007 -3.3954953E-007 -1.8445279E-006 -3.0679219E-006 -2.0685813E-006 -3.1547401E-006 -3.1766548E-006  3.9025756E-006 -1.8604388E-006  1.4248012E-006  2.3231330E-006  4.2551706E-006  3.2022648E-006  2.4890761E-007  6.6564373E-007  1.3663152E-007  2.2623660E-007 -3.2197638E-006  1.6182754E-006  1.9752609E-006 -1.9182609E-006  8.3534273E-008 -3.0577416E-006 -3.0516464E-007  2.4697011E-005  1.5103103E-006 -1.4312945E-006  1.0275529E-005  1.8476919E-006  1.5513756E-005  1.3071657E-005  1.6238692E-005  2.1634963E-005  1.9860040E-005  2.5631197E-005  1.8427960E-005  1.1787036E-005  3.8219345E-006  2.4215072E-005  1.1061590E-005  2.8078711E-005  6.7216012E-006  9.1513312E-006  3.5123217E-006  3.8118311E-005  1.3902699E-005  4.7904937E-005  4.5945639E-005  2.5470063E-005  1.0126796E-005  1.6885792E-005  1.3460159E-005  2.1546402E-005  1.4096587E-005  1.7809821E-005  4.2435977E-005  2.8114186E-005  1.1700706E-005 -2.0106963E-006 -1.7837168E-006  2.9055792E-007  1.7675869E-007 -2.7852277E-006 -2.8510858E-006 -1.3078882E-006  6.7621357E-009  2.6100288E-008 -1.3728115E-006 -3.1018696E-006 -1.3283371E-006 -3.2591279E-006 -3.3546009E-006 -3.3453637E-006 -3.0910516E-006  1.7859695E-008  1.9367616E-008 -1.0281335E-006  3.5993591E-008  1.7199102E-007 -8.5126531E-007  2.8339084E-008  2.1643426E-008  2.0384641E-008  1.9977127E-007 -3.0037191E-007 -3.8007251E-007  2.5030437E-008  1.6829192E-009 -1.4829017E-007  1.2002401E-005 -1.5923806E-006 -2.7866960E-006  8.7440707E-006  4.7502527E-006  2.1287453E-006 -2.0402189E-006 -2.4818989E-006 -2.8286349E-006 -2.7412849E-006  2.9230394E-005  3.6055523E-005  1.4992402E-005 -2.8429754E-006  6.8854253E-006  1.4306070E-005  8.4697509E-006 -3.4040725E-006 -3.5054234E-007  3.1111152E-005  1.1925424E-006 -1.7110474E-007 -3.7176829E-007  1.8272908E-006  1.7411920E-007  4.2315687E-008  1.7095222E-007  1.4794253E-006 -1.3984402E-008 -1.5974046E-006  9.4636610E-008  1.7449972E-006 -4.4406750E-008  2.2923531E-006  1.7078410E-005 -3.5256153E-007 -2.7668602E-006  1.8561361E-006  1.1023923E-005 -5.2187508E-007  3.1831191E-007  1.2278477E-006  7.2963370E-007 -7.7822979E-007  3.0473184E-007  9.7459540E-006  1.5877460E-005 -2.3461316E-006  3.1055136E-005 -2.6595950E-006  7.6209639E-009 -2.2408449E-006  1.5900030E-006 -6.2440656E-008  2.1838214E-006  2.1338088E-006  4.2872820E-007  2.0682985E-007  6.0543308E-007  1.1