<?xml version="1.0"?>
<VTKFile type="UnstructuredGrid" version="0.1" byte_order="LittleEndian">
  <UnstructuredGrid>
    <Piece NumberOfPoints="13978" NumberOfCells="7431">
      <PointData>
        <DataArray type="Float64" Name="temperature" NumberOfComponents="1" format="ascii">
  5.0468071E+002  5.0467191E+002  5.0461868E+002  5.0452656E+002  4.8447650E+002  4.8444990E+002  4.8583866E+002  5.0500000E+002  5.0482544E+002  5.0271455E+002  5.0272234E+002  2.9315000E+002  2.9315000E+002  2.9315000E+002  2.9315000E+002  5.0480761E+002  5.0473043E+002  5.0509677E+002  5.0485275E+002  5.0462441E+002  5.0462884E+002  5.0463332E+002  5.0463796E+002  5.0464274E+002  5.0464761E+002  5.0465249E+002  5.0465725E+002  5.0466175E+002  5.0466582E+002  5.0466925E+002  5.0467149E+002  5.0467273E+002  5.0467328E+002  5.0467332E+002  5.0467291E+002  5.0462198E+002  5.0462663E+002  5.0463107E+002  5.0463562E+002  5.0464033E+002  5.0464517E+002  5.0465006E+002  5.0465489E+002  5.0465954E+002  5.0466385E+002  5.0466763E+002  5.0467046E+002  5.0467218E+002  5.0467307E+002  5.0467336E+002  5.0467317E+002  5.0467253E+002  5.0459292E+002  5.0461297E+002  5.0462364E+002  5.0462961E+002  5.0463269E+002  5.0463385E+002  5.0463365E+002  5.0463243E+002  5.0463041E+002  5.0462769E+002  5.0462422E+002  5.0457230E+002  5.0460459E+002  5.0461907E+002  5.0462707E+002  5.0463143E+002  5.0463347E+002  5.0463389E+002  5.0463315E+002  5.0463151E+002  5.0462914E+002  5.0462606E+002  5.0462199E+002  4.8447294E+002  4.8453281E+002  4.8462437E+002  4.8472060E+002  4.8481654E+002  4.8491058E+002  4.8500195E+002  4.8509065E+002  4.8517635E+002  4.8525942E+002  4.8533992E+002  4.8541808E+002  4.8549405E+002  4.8556794E+002  4.8563986E+002  4.8570975E+002  4.8577717E+002  4.8449197E+002  4.8457770E+002  4.8467238E+002  4.8476875E+002  4.8486391E+002  4.8495666E+002  4.8504671E+002  4.8513385E+002  4.8521823E+002  4.8529999E+002  4.8537930E+002  4.8545634E+002  4.8553125E+002  4.8560415E+002  4.8567508E+002  4.8574383E+002  4.8580925E+002  5.0488479E+002  5.0473783E+002  5.0457478E+002  5.0439267E+002  5.0418618E+002  5.0394769E+002  5.0366655E+002  5.0332952E+002  5.0297383E+002  5.0262055E+002  5.0226977E+002  5.0192153E+002  5.0157588E+002  5.0123284E+002  5.0089246E+002  5.0055477E+002  5.0021981E+002  4.9988762E+002  4.9955822E+002  4.9923167E+002  4.9890800E+002  4.9858725E+002  4.9826946E+002  4.9795467E+002  4.9764291E+002  4.9733423E+002  4.9702867E+002  4.9672626E+002  4.9642703E+002  4.9613104E+002  4.9583831E+002  4.9554888E+002  4.9526279E+002  4.9498006E+002  4.9470074E+002  4.9442487E+002  4.9415247E+002  4.9388358E+002  4.9361823E+002  4.9335645E+002  4.9309828E+002  4.9284375E+002  4.9259289E+002  4.9234572E+002  4.9210229E+002  4.9186262E+002  4.9162674E+002  4.9139467E+002  4.9116647E+002  4.9094213E+002  4.9072171E+002  4.9050521E+002  4.9029269E+002  4.9008414E+002  4.8987962E+002  4.8967914E+002  4.8948274E+002  4.8929044E+002  4.8910227E+002  4.8891825E+002  4.8873843E+002  4.8856282E+002  4.8839145E+002  4.8822435E+002  4.8806155E+002  4.8790309E+002  4.8774899E+002  4.8759928E+002  4.8745399E+002  4.8731316E+002  4.8717682E+002  4.8704501E+002  4.8691775E+002  4.8679510E+002  4.8667708E+002  4.8656376E+002  4.8645516E+002  4.8635136E+002  4.8625239E+002  4.8615835E+002  4.8606934E+002  4.8598558E+002  4.8590761E+002  5.0494930E+002  5.0481210E+002  5.0465663E+002  5.0448387E+002  5.0428947E+002  5.0406690E+002  5.0380700E+002  5.0349780E+002  5.0315138E+002  5.0279689E+002  5.0244485E+002  5.0209533E+002  5.0174838E+002  5.0140403E+002  5.0106232E+002  5.0072328E+002  5.0038695E+002  5.0005337E+002  4.9972257E+002  4.9939459E+002  4.9906948E+002  4.9874726E+002  4.9842799E+002  4.9811169E+002  4.9779841E+002  4.9748819E+002  4.9718106E+002  4.9687707E+002  4.9657625E+002  4.9627863E+002  4.9598427E+002  4.9569318E+002  4.9540541E+002  4.9512100E+002  4.9483998E+002  4.9456238E+002  4.9428823E+002  4.9401758E+002  4.9375046E+002  4.9348689E+002  4.9322692E+002  4.9297056E+002  4.9271786E+002  4.9246884E+002  4.9222354E+002  4.9198198E+002  4.9174420E+002  4.9151023E+002  4.9128009E+002  4.9105381E+002  4.9083143E+002  4.9061297E+002  4.9039845E+002  4.9018791E+002  4.8998138E+002  4.8977888E+002  4.8958043E+002  4.8938608E+002  4.8919584E+002  4.8900974E+002  4.8882782E+002  4.8865010E+002  4.8847660E+002  4.8830737E+002  4.8814241E+002  4.8798178E+002  4.8782549E+002  4.8767358E+002  4.8752608E+002  4.8738302E+002  4.8724443E+002  4.8711035E+002  4.8698081E+002  4.8685585E+002  4.8673551E+002  4.8661984E+002  4.8650887E+002  4.8640266E+002  4.8630127E+002  4.8620475E+002  4.8611321E+002  4.8602679E+002  4.8594582E+002  4.8587151E+002  5.0482492E+002  5.0482339E+002  5.0482085E+002  5.0481731E+002  5.0481280E+002  5.0480733E+002  5.0480092E+002  5.0479356E+002  5.0478524E+002  5.0477590E+002  5.0476544E+002  5.0475371E+002  5.0474046E+002  5.0472534E+002  5.0470787E+002  5.0468738E+002  5.0466293E+002  5.0463326E+002  5.0459662E+002  5.0455070E+002  5.0449256E+002  5.0441886E+002  5.0432679E+002  5.0421586E+002  5.0408932E+002  5.0395333E+002  5.0381406E+002  5.0367576E+002  5.0354076E+002  5.0341010E+002  5.0328418E+002  5.0316309E+002  5.0304680E+002  5.0293508E+002  5.0282723E+002  5.0482531E+002  5.0482428E+002  5.0482224E+002  5.0481920E+002  5.0481518E+002  5.0481018E+002  5.0480424E+002  5.0479736E+002  5.0478953E+002  5.0478070E+002  5.0477082E+002  5.0475975E+002  5.0474729E+002  5.0473316E+002  5.0471694E+002  5.0469806E+002  5.0467572E+002  5.0464885E+002  5.0461594E+002  5.0457500E+002  5.0452337E+002  5.0445786E+002  5.0437523E+002  5.0427357E+002  5.0415419E+002  5.0402209E+002  5.0388378E+002  5.0374460E+002  5.0360776E+002  5.0347485E+002  5.0334653E+002  5.0322303E+002  5.0310436E+002  5.0299041E+002  5.0288078E+002  5.0277312E+002  5.0279901E+002  5.0282559E+002  5.0280270E+002  5.0276570E+002  5.0281853E+002  5.0282038E+002  5.0277139E+002  5.0467981E+002  5.0467876E+002  5.0467769E+002  5.0467661E+002  5.0467550E+002  5.0467436E+002  5.0467320E+002  5.0468030E+002  5.0467928E+002  5.0467822E+002  5.0467714E+002  5.0467604E+002  5.0467491E+002  5.0467377E+002  5.0467257E+002  5.0467466E+002  5.0467167E+002  5.0466974E+002  5.0466851E+002  5.0466778E+002  5.0466745E+002  5.0466747E+002  5.0466777E+002  5.0466834E+002  5.0466914E+002  5.0467017E+002  5.0467140E+002  5.0467283E+002  5.0467446E+002  5.0467629E+002  5.0467831E+002  5.0468054E+002  5.0468299E+002  5.0468566E+002  5.0468858E+002  5.0469176E+002  5.0469523E+002  5.0469902E+002  5.0470316E+002  5.0470770E+002  5.0471269E+002  5.0471821E+002  5.0472431E+002  5.0473111E+002  5.0473873E+002  5.0474732E+002  5.0475709E+002  5.0476830E+002  5.0478132E+002  5.0479667E+002  5.0481513E+002  5.0483799E+002  5.0486754E+002  5.0490904E+002  5.0467697E+002  5.0467299E+002  5.0467060E+002  5.0466905E+002  5.0466809E+002  5.0466757E+002  5.0466742E+002  5.0466759E+002  5.0466803E+002  5.0466871E+002  5.0466963E+002  5.0467076E+002  5.0467209E+002  5.0467362E+002  5.0467535E+002  5.0467727E+002  5.0467940E+002  5.0468174E+002  5.0468430E+002  5.0468709E+002  5.0469013E+002  5.0469346E+002  5.0469708E+002  5.0470104E+002  5.0470538E+002  5.0471014E+002  5.0471538E+002  5.0472118E+002  5.0472762E+002  5.0473481E+002  5.0474290E+002  5.0475205E+002  5.0476249E+002  5.0477456E+002  5.0478866E+002  5.0480545E+002  5.0482590E+002  5.0485170E+002  5.0488626E+002  5.0494279E+002  2.9616553E+002  2.9927339E+002  3.0257035E+002  3.0616695E+002  3.1019457E+002  3.1482205E+002  3.2027442E+002  3.2688735E+002  3.3521488E+002  3.4573099E+002  3.5653855E+002  3.6736419E+002  3.7845110E+002  3.9004966E+002  4.0312687E+002  4.1944836E+002  4.4380327E+002  2.9465185E+002  2.9770217E+002  3.0089172E+002  3.0432345E+002  3.0811743E+002  3.1242107E+002  3.1742716E+002  3.2340940E+002  3.3079216E+002  3.4006647E+002  3.5070611E+002  3.6150128E+002  3.7240460E+002  3.8366695E+002  3.9580400E+002  4.1004856E+002  4.2906658E+002  4.6045941E+002  2.9315000E+002  2.9315000E+002  2.9315000E+002  2.9315000E+002  2.9315000E+002  2.9315000E+002  2.9315000E+002  2.9315000E+002  2.9315000E+002  2.9315000E+002  2.9315000E+002  2.9315000E+002  2.9315000E+002  2.9315000E+002  2.9315000E+002  2.9315000E+002  2.9315000E+002  2.9315000E+002  2.9315000E+002  2.9315000E+002  2.9315000E+002  2.9315000E+002  2.9315000E+002  2.9315000E+002  2.9315000E+002  2.9315000E+002  2.9315000E+002  2.9315000E+002  2.9315000E+002  2.9315000E+002  2.9315000E+002  2.9315000E+002  2.9315000E+002  2.9315000E+002  2.9315000E+002  2.9315000E+002  2.9315000E+002  2.9315000E+002  2.9315000E+002  2.9315000E+002  2.9315000E+002  2.9315000E+002  2.9315000E+002  2.9315000E+002  2.9315000E+002  2.9315000E+002  2.9315000E+002  2.9315000E+002  2.9315000E+002  2.9315000E+002  2.9315000E+002  2.9315000E+002  2.9315000E+002  2.9315000E+002  2.9315000E+002  2.9315000E+002  2.9315000E+002  2.9315000E+002  2.9315000E+002  2.9315000E+002  2.9315000E+002  2.9315000E+002  2.9315000E+002  2.9315000E+002  2.9315000E+002  2.9315000E+002  2.9315000E+002  2.9315000E+002  2.9315000E+002  2.9315000E+002  2.9315000E+002  2.9315000E+002  2.9315000E+002  2.9315000E+002  2.9315000E+002  2.9315000E+002  2.9315000E+002  2.9315000E+002  2.9315000E+002  2.9315000E+002  2.9315000E+002  2.9315000E+002  2.9315000E+002  2.9315000E+002  2.9315000E+002  2.9315000E+002  2.9315000E+002  2.9315000E+002  2.9315000E+002  2.9315000E+002  2.9315000E+002  2.9315000E+002  2.9315000E+002  2.9315000E+002  2.9315000E+002  2.9315000E+002  2.9315000E+002  2.9315000E+002  2.9315000E+002  2.9315000E+002  2.9315000E+002  2.9315000E+002  2.9315000E+002  2.9315000E+002  2.9315000E+002  2.9315000E+002  2.9315000E+002  4.9874876E+002  4.9049332E+002  4.7931238E+002  4.6427096E+002  4.4425550E+002  4.1815330E+002  3.8538663E+002  3.5271482E+002  3.2232995E+002  5.0178640E+002  4.9461794E+002  4.8489285E+002  4.7176248E+002  4.5418600E+002  4.3102552E+002  4.0142560E+002  3.6870587E+002  3.3729974E+002  3.0766179E+002  5.0283286E+002  5.0294004E+002  5.0305164E+002  5.0316816E+002  5.0328985E+002  5.0341694E+002  5.0354992E+002  5.0368969E+002  5.0383816E+002  5.0399980E+002  5.0418726E+002  5.0277951E+002  5.0288597E+002  5.0299524E+002  5.0310927E+002  5.0322835E+002  5.0335269E+002  5.0348265E+002  5.0361887E+002  5.0376265E+002  5.0391686E+002  5.0408885E+002  5.0431618E+002  5.0480756E+002  5.0480742E+002  5.0480718E+002  5.0480685E+002  5.0480643E+002  5.0480593E+002  5.0480534E+002  5.0480467E+002  5.0480393E+002  5.0480311E+002  5.0480223E+002  5.0480129E+002  5.0480029E+002  5.0479923E+002  5.0479813E+002  5.0479699E+002  5.0479580E+002  5.0479458E+002  5.0479332E+002  5.0479202E+002  5.0479070E+002  5.0478934E+002  5.0478796E+002  5.0478655E+002  5.0478511E+002  5.0478364E+002  5.0478215E+002  5.0478062E+002  5.0477907E+002  5.0477748E+002  5.0477587E+002  5.0477422E+002  5.0477253E+002  5.0477081E+002  5.0476904E+002  5.0476723E+002  5.0476537E+002  5.0476347E+002  5.0476150E+002  5.0475948E+002  5.0475738E+002  5.0475521E+002  5.0475294E+002  5.0475057E+002  5.0474808E+002  5.0474543E+002  5.0474257E+002  5.0473943E+002  5.0473581E+002  5.0480760E+002  5.0480750E+002  5.0480731E+002  5.0480703E+002  5.0480665E+002  5.0480619E+002  5.0480564E+002  5.0480501E+002  5.0480431E+002  5.0480353E+002  5.0480268E+002  5.0480177E+002  5.0480079E+002  5.0479977E+002  5.0479869E+002  5.0479757E+002  5.0479640E+002  5.0479519E+002  5.0479395E+002  5.0479267E+002  5.0479136E+002  5.0479002E+002  5.0478866E+002  5.0478726E+002  5.0478583E+002  5.0478438E+002  5.0478290E+002  5.0478139E+002  5.0477985E+002  5.0477828E+002  5.0477668E+002  5.0477505E+002  5.0477338E+002  5.0477167E+002  5.0476993E+002  5.0476814E+002  5.0476631E+002  5.0476443E+002  5.0476249E+002  5.0476050E+002  5.0475844E+002  5.0475630E+002  5.0475408E+002  5.0475177E+002  5.0474934E+002  5.0474677E+002  5.0474403E+002  5.0474105E+002  5.0473770E+002  5.0473354E+002  5.0472486E+002  5.0472103E+002  5.0471768E+002  5.0471462E+002  5.0471177E+002  5.0470909E+002  5.0470655E+002  5.0470412E+002  5.0470180E+002  5.0469956E+002  5.0469740E+002  5.0469531E+002  5.0469329E+002  5.0469132E+002  5.0468941E+002  5.0468755E+002  5.0468574E+002  5.0468396E+002  5.0468224E+002  5.0472724E+002  5.0472287E+002  5.0471931E+002  5.0471612E+002  5.0471317E+002  5.0471042E+002  5.0470781E+002  5.0470532E+002  5.0470295E+002  5.0470067E+002  5.0469847E+002  5.0469635E+002  5.0469429E+002  5.0469230E+002  5.0469036E+002  5.0468848E+002  5.0468664E+002  5.0468484E+002  5.0468310E+002  5.0468143E+002  5.0503472E+002  5.0505145E+002  5.0506384E+002  5.0507346E+002  5.0508102E+002  5.0508689E+002  5.0509130E+002  5.0509436E+002  5.0509617E+002  5.0502194E+002  5.0504379E+002  5.0505806E+002  5.0506894E+002  5.0507747E+002  5.0508415E+002  5.0508927E+002  5.0509299E+002  5.0509542E+002  5.0509662E+002  5.0506260E+002  5.0502950E+002  5.0499724E+002  5.0496585E+002  5.0493557E+002  5.0490679E+002  5.0488006E+002  5.0485697E+002  5.0484171E+002  5.0483150E+002  5.0482422E+002  5.0481874E+002  5.0481440E+002  5.0481078E+002  5.0507938E+002  5.0504569E+002  5.0501293E+002  5.0498102E+002  5.0495007E+002  5.0492043E+002  5.0489258E+002  5.0486765E+002  5.0484884E+002  5.0483632E+002  5.0482769E+002  5.0482138E+002  5.0481651E+002  5.0481255E+002  5.0480917E+002  5.0480728E+002  5.0480712E+002  5.0480712E+002  5.0480734E+002  5.0480782E+002  5.0480867E+002  5.0481003E+002  5.0481213E+002  5.0481535E+002  5.0482037E+002  5.0482834E+002  5.0483952E+002  5.0480742E+002  5.0480718E+002  5.0480710E+002  5.0480721E+002  5.0480755E+002  5.0480821E+002  5.0480930E+002  5.0481101E+002  5.0481365E+002  5.0481773E+002  5.0482415E+002  5.0483367E+002  5.0484588E+002  5.0485219E+002  5.0485051E+002  5.0484776E+002  5.0484396E+002  5.0483917E+002  5.0483345E+002  5.0482687E+002  5.0481950E+002  5.0481143E+002  5.0480273E+002  5.0479344E+002  5.0478356E+002  5.0477306E+002  5.0476182E+002  5.0474972E+002  5.0473657E+002  5.0472217E+002  5.0470627E+002  5.0468859E+002  5.0466873E+002  5.0464612E+002  5.0461978E+002  5.0458734E+002  5.0485261E+002  5.0485149E+002  5.0484927E+002  5.0484598E+002  5.0484168E+002  5.0483642E+002  5.0483026E+002  5.0482328E+002  5.0481555E+002  5.0480715E+002  5.0479815E+002  5.0478858E+002  5.0477840E+002  5.0476754E+002  5.0475589E+002  5.0474329E+002  5.0472954E+002  5.0471443E+002  5.0469768E+002  5.0467896E+002  5.0465781E+002  5.0463350E+002  5.0460456E+002  5.0456454E+002  4.8454245E+002  4.8463629E+002  4.8473597E+002  4.8483563E+002  4.8493323E+002  4.8502802E+002  4.8511978E+002  4.8520854E+002  4.8529447E+002  4.8537774E+002  4.8545857E+002  4.8553720E+002  4.8561392E+002  4.8568917E+002  4.8576365E+002  4.8583847E+002  4.8591509E+002  4.8599490E+002  4.8607885E+002  4.8616746E+002  4.8626091E+002  4.8635924E+002  4.8646243E+002  4.8657043E+002  4.8668319E+002  4.8680067E+002  4.8692283E+002  4.8704961E+002  4.8718098E+002  4.8731689E+002  4.8745733E+002  4.8760224E+002  4.8775159E+002  4.8790536E+002  4.8806351E+002  4.8822600E+002  4.8839282E+002  4.8856393E+002  4.8873929E+002  4.8891889E+002  4.8910269E+002  4.8929066E+002  4.8948278E+002  4.8967902E+002  4.8987934E+002  4.9008373E+002  4.9029214E+002  4.9050456E+002  4.9072096E+002  4.9094131E+002  4.9116557E+002  4.9139373E+002  4.9162574E+002  4.9186159E+002  4.9210124E+002  4.9234467E+002  4.9259183E+002  4.9284271E+002  4.9309727E+002  4.9335548E+002  4.9361731E+002  4.9388272E+002  4.9415168E+002  4.9442416E+002  4.9470013E+002  4.9497955E+002  4.9526238E+002  4.9554860E+002  4.9583816E+002  4.9613103E+002  4.9642718E+002  4.9672656E+002  4.9702915E+002  4.9733489E+002  4.9764376E+002  4.9795572E+002  4.9827072E+002  4.9858873E+002  4.9890971E+002  4.9923362E+002  4.9956042E+002  4.9989008E+002  5.0022255E+002  5.0055779E+002  5.0089578E+002  5.0123647E+002  5.0157984E+002  5.0192584E+002  5.0227446E+002  5.0262568E+002  5.0297951E+002  5.0333605E+002  5.0367511E+002  5.0395904E+002  5.0420134E+002  5.0441315E+002  5.0460269E+002  5.0477633E+002  5.0493933E+002  4.8450262E+002  4.8458797E+002  4.8468591E+002  4.8478598E+002  4.8488476E+002  4.8498100E+002  4.8507428E+002  4.8516453E+002  4.8525185E+002  4.8533642E+002  4.8541844E+002  4.8549814E+002  4.8557578E+002  4.8565169E+002  4.8572644E+002  4.8580093E+002  4.8587647E+002  4.8595452E+002  4.8603632E+002  4.8612256E+002  4.8621358E+002  4.8630947E+002  4.8641023E+002  4.8651583E+002  4.8662622E+002  4.8674135E+002  4.8686117E+002  4.8698564E+002  4.8711472E+002  4.8724837E+002  4.8738655E+002  4.8752922E+002  4.8767636E+002  4.8782793E+002  4.8798389E+002  4.8814421E+002  4.8830887E+002  4.8847784E+002  4.8865108E+002  4.8882856E+002  4.8901027E+002  4.8919616E+002  4.8938621E+002  4.8958039E+002  4.8977867E+002  4.8998103E+002  4.9018743E+002  4.9039786E+002  4.9061227E+002  4.9083064E+002  4.9105295E+002  4.9127916E+002  4.9150925E+002  4.9174319E+002  4.9198094E+002  4.9222249E+002  4.9246779E+002  4.9271681E+002  4.9296953E+002  4.9322592E+002  4.9348594E+002  4.9374957E+002  4.9401676E+002  4.9428748E+002  4.9456171E+002  4.9483941E+002  4.9512054E+002  4.9540507E+002  4.9569296E+002  4.9598419E+002  4.9627870E+002  4.9657647E+002  4.9687746E+002  4.9718163E+002  4.9748894E+002  4.9779936E+002  4.9811284E+002  4.9842935E+002  4.9874885E+002  4.9907130E+002  4.9939666E+002  4.9972489E+002  5.0005596E+002  5.0038982E+002  5.0072645E+002  5.0106579E+002  5.0140782E+002  5.0175251E+002  5.0209982E+002  5.0244974E+002  5.0280226E+002  5.0315743E+002  5.0350523E+002  5.0381677E+002  5.0407991E+002  5.0430696E+002  5.0450764E+002  5.0468923E+002  5.0485754E+002  5.0501776E+002  5.0490453E+002  5.0491727E+002  5.0489092E+002  5.0488351E+002  5.0491578E+002  5.0490898E+002  5.0486307E+002  5.0477134E+002  5.0479236E+002  5.0478256E+002  5.0467823E+002  5.0479967E+002  5.0475615E+002  5.0492486E+002  5.0469831E+002  5.0473269E+002  5.0479120E+002  5.0469933E+002  5.0468622E+002  5.0476358E+002  5.0467313E+002  5.0480470E+002  5.0474750E+002  5.0486568E+002  5.0470998E+002  5.0469048E+002  5.0471005E+002  5.0480741E+002  5.0467254E+002  5.0475665E+002  5.0477607E+002  5.0501753E+002  5.0478752E+002  5.0504930E+002  5.0482731E+002  5.0471926E+002  5.0494966E+002  5.0467331E+002  5.0473954E+002  5.0480950E+002  5.0469175E+002  5.0472056E+002  5.0470468E+002  5.0468189E+002  5.0468573E+002  5.0469488E+002  5.0467523E+002  5.0475216E+002  5.0480227E+002  5.0479665E+002  5.0483190E+002  5.0476082E+002  5.0476781E+002  5.0477956E+002  5.0506190E+002  5.0481629E+002  5.0501196E+002  5.0473281E+002  5.0467685E+002  5.0480993E+002  5.0488988E+002  5.0487477E+002  5.0484946E+002  5.0485301E+002  5.0487526E+002  5.0485548E+002  5.0483711E+002  5.0483493E+002  5.0484746E+002  5.0482818E+002  5.0483782E+002  5.0481795E+002  5.0481311E+002  5.0480338E+002  5.0480702E+002  5.0479272E+002  5.0479289E+002  5.0478310E+002  5.0477931E+002  5.0477249E+002  5.0476564E+002  5.0476136E+002  5.0476789E+002  5.0475863E+002  5.0475073E+002  5.0474926E+002  5.0474094E+002  5.0474007E+002  5.0474882E+002  5.0474146E+002  5.0473173E+002  5.0473202E+002  5.0474093E+002  5.0473295E+002  5.0472342E+002  5.0472536E+002  5.0471610E+002  5.0471825E+002  5.0472752E+002  5.0472058E+002  5.0471173E+002  5.0471398E+002  5.0472285E+002  5.0471633E+002  5.0470843E+002  5.0476540E+002  5.0477291E+002  5.0474214E+002  5.0472576E+002  5.0471876E+002  5.0482417E+002  5.0474892E+002  5.0473084E+002  5.0482625E+002  5.0477414E+002  5.0486221E+002  5.0485024E+002  5.0472590E+002  5.0471425E+002  5.0470766E+002  5.0476248E+002  5.0471997E+002  5.0471356E+002  5.0477185E+002  5.0477734E+002  5.0472673E+002  5.0475031E+002  5.0481825E+002  5.0488216E+002  5.0475664E+002  5.0476962E+002  5.0481841E+002  5.0486437E+002  5.0472114E+002  5.0472718E+002  5.0473298E+002  5.0470590E+002  5.0475807E+002  5.0482534E+002  5.0481905E+002  5.0470012E+002  5.0477644E+002  5.0477188E+002  5.0474248E+002  5.0473346E+002  5.0473465E+002  5.0472644E+002  5.0471151E+002  5.0472196E+002  5.0478100E+002  5.0478216E+002  5.0478241E+002  5.0477799E+002  5.0479186E+002  5.0483977E+002  5.0481350E+002  5.0481222E+002  5.0488915E+002  5.0475530E+002  5.0476153E+002  5.0471657E+002  5.0476112E+002  5.0470421E+002  5.0470968E+002  5.0472527E+002  5.0471899E+002  5.0475682E+002  5.0475208E+002  5.0491315E+002  5.0491882E+002  5.0484868E+002  5.0470139E+002  5.0472741E+002  5.0469467E+002  5.0469628E+002  5.0476641E+002  5.0477637E+002  5.0473296E+002  5.0475829E+002  5.0475458E+002  5.0474769E+002  5.0474959E+002  5.0472773E+002  5.0473584E+002  5.0468978E+002  5.0469145E+002  5.0482386E+002  5.0481825E+002  5.0478515E+002  5.0478655E+002  5.0478417E+002  5.0478859E+002  5.0479033E+002  5.0479223E+002  5.0477220E+002  5.0494513E+002  5.0494865E+002  5.0494085E+002  5.0497832E+002  5.0497842E+002  5.0494932E+002  5.0497662E+002  5.0478755E+002  5.0480227E+002  5.0476718E+002  5.0480919E+002  5.0494712E+002  5.0474301E+002  5.0474514E+002  5.0475141E+002  5.0474731E+002  5.0480947E+002  5.0480770E+002  5.0480991E+002  5.0480524E+002  5.0481025E+002  5.0480683E+002  5.0480231E+002  5.0480172E+002  5.0487514E+002  5.0480288E+002  5.0470271E+002  5.0470800E+002  5.0471603E+002  5.0481461E+002  5.0476257E+002  5.0477318E+002  5.0476693E+002  5.0479154E+002  5.0469321E+002  5.0485623E+002  5.0472217E+002  5.0472737E+002  5.0479898E+002  5.0475213E+002  5.0469789E+002  5.0469333E+002  5.0468692E+002  5.0468886E+002  5.0469610E+002  5.0469070E+002  5.0468481E+002  5.0468667E+002  5.0469217E+002  5.0468848E+002  5.0469397E+002  5.0469048E+002  5.0469571E+002  5.0468524E+002  5.0468698E+002  5.0468246E+002  5.0468005E+002  5.0468114E+002  5.0469945E+002  5.0470034E+002  5.0469701E+002  5.0470087E+002  5.0473847E+002  5.0479319E+002  5.0469779E+002  5.0480615E+002  5.0468486E+002  5.0468842E+002  5.0492278E+002  5.0489668E+002  5.0477121E+002  5.0482210E+002  5.0482900E+002  5.0481681E+002  5.0477112E+002  5.0472928E+002  5.0473768E+002  5.0478451E+002  5.0475332E+002  5.0474933E+002  5.0474344E+002  5.0474551E+002  5.0473975E+002  5.0474191E+002  5.0470479E+002  5.0468076E+002  5.0477688E+002  5.0478052E+002  5.0479931E+002  5.0474157E+002  5.0481219E+002  5.0483263E+002  5.0476070E+002  5.0480129E+002  5.0497143E+002  5.0500573E+002  5.0470185E+002  5.0470700E+002  5.0472135E+002  5.0474727E+002  5.0474377E+002  5.0492107E+002  5.0469743E+002  5.0469421E+002  5.0470111E+002  5.0470447E+002  5.0470442E+002  5.0470789E+002  5.0478139E+002  5.0478780E+002  5.0479215E+002  5.0467897E+002  5.0475551E+002  5.0478524E+002  5.0481940E+002  5.0473081E+002  5.0473961E+002  5.0473121E+002  5.0470729E+002  5.0479682E+002  5.0480384E+002  5.0475293E+002  5.0475746E+002  5.0475554E+002  5.0476084E+002  5.0479763E+002  5.0468245E+002  5.0476530E+002  5.0476076E+002  5.0475444E+002  5.0474947E+002  5.0478913E+002  5.0472211E+002  5.0480698E+002  5.0480807E+002  5.0481096E+002  5.0474753E+002  5.0468851E+002  5.0468371E+002  5.0481408E+002  5.0481114E+002  5.0497728E+002  5.0497229E+002  5.0492795E+002  5.0489288E+002  5.0477713E+002  5.0476367E+002  5.0501163E+002  5.0469593E+002  5.0468307E+002  5.0468094E+002  5.0468448E+002  5.0476331E+002  5.0476842E+002  5.0488925E+002  5.0485826E+002  5.0471743E+002  5.0471728E+002  5.0471283E+002  5.0467575E+002  5.0471998E+002  5.0471291E+002  5.0479536E+002  5.0482566E+002  5.0469801E+002  5.0469119E+002  5.0478675E+002  5.0471471E+002  5.0478108E+002  5.0473283E+002  5.0473823E+002  5.0473822E+002  5.0473830E+002  5.0474388E+002  5.0469319E+002  5.0470905E+002  5.0501145E+002  5.0500960E+002  5.0476668E+002  5.0471103E+002  5.0470921E+002  5.0473288E+002  5.0467731E+002  5.0467536E+002  5.0467734E+002  5.0475888E+002  5.0473121E+002  5.0475187E+002  5.0473296E+002  5.0472740E+002  5.0504023E+002  5.0481452E+002  5.0468336E+002  5.0483627E+002  5.0476638E+002  5.0474268E+002  5.0482624E+002  5.0483419E+002  5.0481773E+002  5.0469851E+002  5.0471144E+002  5.0479539E+002  5.0479523E+002  5.0496678E+002  5.0473016E+002  5.0478419E+002  5.0478427E+002  5.0479446E+002  5.0481547E+002  5.0468675E+002  5.0471811E+002  5.0477639E+002  5.0467945E+002  5.0468324E+002  5.0479379E+002  5.0468666E+002  5.0477538E+002  5.0484707E+002  5.0483447E+002  5.0491987E+002  5.0504411E+002  5.0502836E+002  5.0470482E+002  5.0470078E+002  5.0480376E+002  5.0476135E+002  5.0476236E+002  5.0498031E+002  5.0471323E+002  5.0470780E+002  5.0470574E+002  5.0473843E+002  5.0474376E+002  5.0472175E+002  5.0473621E+002  5.0472363E+002  5.0477170E+002  5.0477545E+002  5.0477902E+002  5.0477555E+002  5.0478755E+002  5.0473594E+002  5.0471295E+002  5.0468892E+002  5.0469466E+002  5.0468393E+002  5.0480983E+002  5.0480889E+002  5.0472361E+002  5.0472668E+002  5.0467686E+002  5.0471491E+002  5.0468012E+002  5.0468820E+002  5.0469271E+002  5.0469211E+002  5.0470194E+002  5.0473994E+002  5.0467508E+002  5.0474984E+002  5.0470727E+002  5.0467305E+002  5.0475433E+002  5.0480351E+002  5.0475808E+002  5.0480092E+002  5.0479820E+002  5.0467469E+002  5.0476971E+002  5.0479053E+002  5.0477296E+002  5.0476784E+002  5.0477465E+002  5.0482136E+002  5.0474307E+002  5.0480176E+002  5.0469976E+002  5.0481273E+002  5.0475537E+002  5.0481399E+002  5.0480966E+002  5.0486930E+002  5.0470068E+002  5.0481902E+002  5.0474116E+002  5.0504464E+002  5.0475663E+002  5.0471591E+002  5.0471654E+002  5.0479544E+002  5.0476592E+002  5.0474932E+002  5.0473822E+002  5.0480575E+002  5.0474826E+002  5.0475577E+002  5.0483767E+002  5.0477908E+002  5.0474786E+002  5.0470239E+002  5.0471346E+002  5.0472672E+002  5.0481237E+002  5.0488569E+002  5.0489815E+002  5.0470450E+002  5.0480661E+002  5.0476551E+002  5.0494468E+002  5.0471244E+002  5.0469191E+002  5.0467225E+002  5.0480820E+002  5.0492215E+002  5.0500699E+002  5.0473763E+002  5.0492167E+002  5.0478151E+002  5.0506565E+002  5.0481543E+002  5.0468021E+002  5.0474591E+002  5.0480860E+002  5.0479552E+002  5.0499378E+002  5.0469758E+002  5.0473607E+002  5.0480910E+002  5.0468955E+002  5.0479890E+002  5.0470168E+002  5.0470422E+002  5.0480503E+002  5.0470848E+002  5.0467818E+002  5.0468345E+002  5.0474231E+002  5.0478692E+002  5.0470377E+002  5.0469439E+002  5.0472316E+002  5.0477909E+002  5.0474088E+002  5.0476498E+002  5.0479006E+002  5.0468890E+002  5.0490002E+002  5.0479552E+002  5.0467126E+002  5.0477031E+002  5.0468073E+002  5.0481148E+002  5.0482641E+002  5.0479101E+002  5.0479971E+002  5.0477199E+002  5.0474304E+002  5.0503257E+002  5.0476765E+002  5.0478204E+002  5.0481745E+002  5.0473509E+002  5.0482220E+002  5.0480132E+002  5.0471030E+002  5.0468651E+002  5.0470580E+002  5.0485390E+002  5.0467708E+002  5.0474778E+002  5.0470468E+002  5.0470163E+002  5.0467114E+002  5.0469125E+002  5.0469705E+002  5.0490143E+002  5.0480225E+002  5.0471229E+002  5.0473005E+002  5.0475178E+002  5.0470804E+002  5.0469695E+002  5.0471573E+002  5.0479803E+002  5.0478970E+002  5.0504272E+002  5.0473389E+002  5.0478457E+002  5.0483021E+002  5.0483672E+002  5.0477197E+002  5.0474993E+002  5.0478898E+002  5.0476353E+002  5.0478667E+002  5.0477884E+002  5.0479181E+002  5.0481135E+002  5.0489910E+002  5.0488027E+002  5.0473651E+002  5.0481274E+002  5.0474630E+002  5.0472310E+002  5.0467881E+002  5.0473016E+002  5.0476332E+002  5.0476572E+002  5.0507057E+002  5.0506731E+002  5.0478211E+002  5.0467601E+002  5.0475589E+002  5.0480895E+002  5.0480989E+002  5.0496521E+002  5.0475822E+002  5.0479451E+002  5.0472310E+002  5.0478504E+002  5.0469006E+002  5.0479565E+002  5.0469532E+002  5.0471080E+002  5.0469639E+002  5.0467796E+002  5.0467893E+002  5.0473400E+002  5.0469354E+002  5.0491128E+002  5.0476089E+002  5.0467405E+002  5.0476771E+002  5.0481330E+002  5.0480940E+002  5.0479879E+002  5.0476942E+002  5.0475902E+002  5.0471038E+002  5.0470976E+002  5.0471217E+002  5.0479886E+002  5.0479966E+002  5.0479896E+002  5.0484533E+002  5.0483360E+002  5.0484486E+002  5.0484223E+002  5.0485658E+002  5.0474795E+002  5.0474724E+002  5.0475246E+002  5.0471685E+002  5.0471811E+002  5.0471286E+002  5.0470770E+002  5.0470932E+002  5.0475543E+002  5.0476202E+002  5.0475919E+002  5.0473179E+002  5.0473309E+002  5.0472883E+002  5.0474576E+002  5.0474584E+002  5.0474384E+002  5.0478343E+002  5.0477885E+002  5.0478636E+002  5.0474683E+002  5.0474868E+002  5.0474567E+002  5.0479870E+002  5.0479790E+002  5.0499818E+002  5.0497978E+002  5.0474106E+002  5.0474103E+002  5.0471273E+002  5.0471003E+002  5.0471193E+002  5.0493259E+002  5.0493183E+002  5.0492089E+002  5.0471934E+002  5.0472006E+002  5.0472277E+002  5.0483272E+002  5.0483126E+002  5.0482778E+002  5.0483710E+002  5.0483218E+002  5.0484547E+002  5.0472353E+002  5.0472879E+002  5.0472569E+002  5.0481258E+002  5.0481447E+002  5.0481428E+002  5.0475496E+002  5.0475712E+002  5.0475399E+002  5.0468709E+002  5.0468407E+002  5.0468677E+002  5.0474094E+002  5.0474374E+002  5.0473875E+002  5.0472688E+002  5.0472188E+002  5.0480639E+002  5.0480524E+002  5.0480577E+002  5.0483568E+002  5.0483028E+002  5.0480504E+002  5.0480563E+002  5.0480690E+002  5.0475713E+002  5.0475434E+002  5.0475609E+002  5.0475809E+002  5.0475985E+002  5.0474489E+002  5.0474312E+002  5.0470832E+002  5.0470526E+002  5.0470450E+002  5.0502876E+002  5.0501075E+002  5.0503032E+002  5.0469789E+002  5.0470232E+002  5.0470045E+002  5.0470274E+002  5.0469848E+002  5.0481591E+002  5.0481738E+002  5.0481785E+002  5.0475916E+002  5.0476220E+002  5.0476051E+002  5.0474716E+002  5.0474566E+002  5.0474902E+002  5.0482692E+002  5.0483074E+002  5.0468451E+002  5.0468177E+002  5.0468395E+002  5.0473775E+002  5.0473938E+002  5.0473221E+002  5.0472827E+002  5.0472934E+002  5.0469220E+002  5.0469461E+002  5.0469556E+002  5.0490981E+002  5.0491010E+002  5.0475730E+002  5.0476322E+002  5.0471135E+002  5.0471418E+002  5.0474400E+002  5.0473902E+002  5.0476315E+002  5.0476686E+002  5.0476902E+002  5.0497542E+002  5.0499506E+002  5.0499619E+002  5.0477156E+002  5.0