<?xml version="1.0"?>
<VTKFile type="UnstructuredGrid" version="0.1" byte_order="LittleEndian">
  <UnstructuredGrid>
    <Piece NumberOfPoints="3549" NumberOfCells="7431">
      <PointData>
        <DataArray type="Float64" Name="temperature" NumberOfComponents="1" format="ascii">
  5.0469151E+002  5.0468278E+002  5.0462832E+002  5.0454079E+002  4.8420970E+002  4.8417123E+002  4.8565639E+002  5.0500000E+002  5.0483631E+002  5.0273949E+002  5.0274755E+002  2.9315000E+002  2.9315000E+002  2.9315000E+002  2.9315000E+002  5.0481830E+002  5.0474129E+002  5.0509520E+002  5.0486410E+002  5.0463415E+002  5.0463876E+002  5.0464336E+002  5.0464811E+002  5.0465297E+002  5.0465794E+002  5.0466288E+002  5.0466772E+002  5.0467229E+002  5.0467642E+002  5.0467993E+002  5.0468224E+002  5.0468352E+002  5.0468408E+002  5.0468413E+002  5.0468375E+002  5.0459970E+002  5.0462134E+002  5.0463289E+002  5.0463922E+002  5.0464253E+002  5.0464381E+002  5.0464368E+002  5.0464244E+002  5.0464039E+002  5.0463759E+002  5.0463400E+002  4.8427150E+002  4.8437495E+002  4.8448208E+002  4.8458562E+002  4.8468627E+002  4.8478341E+002  4.8487861E+002  4.8496849E+002  4.8505564E+002  4.8513966E+002  4.8522118E+002  4.8530037E+002  4.8537679E+002  4.8545129E+002  4.8552367E+002  4.8559292E+002  5.0487987E+002  5.0473342E+002  5.0456993E+002  5.0438727E+002  5.0418004E+002  5.0394064E+002  5.0365839E+002  5.0331999E+002  5.0296279E+002  5.0260804E+002  5.0225570E+002  5.0190593E+002  5.0155874E+002  5.0121407E+002  5.0087209E+002  5.0053278E+002  5.0019611E+002  4.9986223E+002  4.9953112E+002  4.9920280E+002  4.9887732E+002  4.9855472E+002  4.9823508E+002  4.9791832E+002  4.9760464E+002  4.9729397E+002  4.9698643E+002  4.9668197E+002  4.9638071E+002  4.9608269E+002  4.9578790E+002  4.9549633E+002  4.9520813E+002  4.9492315E+002  4.9464159E+002  4.9436343E+002  4.9408882E+002  4.9381757E+002  4.9354991E+002  4.9328575E+002  4.9302528E+002  4.9276828E+002  4.9251502E+002  4.9226537E+002  4.9201950E+002  4.9177727E+002  4.9153889E+002  4.9130431E+002  4.9107372E+002  4.9084685E+002  4.9062397E+002  4.9040496E+002  4.9019001E+002  4.8997884E+002  4.8977173E+002  4.8956855E+002  4.8936955E+002  4.8917472E+002  4.8898384E+002  4.8879720E+002  4.8861479E+002  4.8843668E+002  4.8826265E+002  4.8809297E+002  4.8792759E+002  4.8776656E+002  4.8760995E+002  4.8745754E+002  4.8730967E+002  4.8716624E+002  4.8702734E+002  4.8689295E+002  4.8676289E+002  4.8663752E+002  4.8651669E+002  4.8640075E+002  4.8628960E+002  4.8618336E+002  4.8608199E+002  4.8598555E+002  4.8589420E+002  4.8580795E+002  4.8572785E+002  5.0483535E+002  5.0483466E+002  5.0483232E+002  5.0482915E+002  5.0482476E+002  5.0481947E+002  5.0481235E+002  5.0480536E+002  5.0479705E+002  5.0478746E+002  5.0477764E+002  5.0476618E+002  5.0475291E+002  5.0473756E+002  5.0472051E+002  5.0470029E+002  5.0467657E+002  5.0464730E+002  5.0461147E+002  5.0456776E+002  5.0451184E+002  5.0444078E+002  5.0435202E+002  5.0424439E+002  5.0411984E+002  5.0398461E+002  5.0384627E+002  5.0370788E+002  5.0357193E+002  5.0344071E+002  5.0331307E+002  5.0319137E+002  5.0307408E+002  5.0296056E+002  5.0285078E+002  5.0282346E+002  5.0285058E+002  5.0282736E+002  5.0469058E+002  5.0468955E+002  5.0468848E+002  5.0468740E+002  5.0468630E+002  5.0468518E+002  5.0468402E+002  5.0468563E+002  5.0468260E+002  5.0468066E+002  5.0467941E+002  5.0467867E+002  5.0467835E+002  5.0467836E+002  5.0467866E+002  5.0467922E+002  5.0468002E+002  5.0468103E+002  5.0468224E+002  5.0468367E+002  5.0468528E+002  5.0468709E+002  5.0468909E+002  5.0469129E+002  5.0469371E+002  5.0469635E+002  5.0469923E+002  5.0470237E+002  5.0470580E+002  5.0470954E+002  5.0471362E+002  5.0471811E+002  5.0472304E+002  5.0472847E+002  5.0473448E+002  5.0474119E+002  5.0474870E+002  5.0475717E+002  5.0476679E+002  5.0477787E+002  5.0479072E+002  5.0480589E+002  5.0482427E+002  5.0484686E+002  5.0487668E+002  5.0492006E+002  2.9623436E+002  2.9941681E+002  3.0279659E+002  3.0647254E+002  3.1060564E+002  3.1535465E+002  3.2093807E+002  3.2784169E+002  3.3650062E+002  3.4752864E+002  3.5891314E+002  3.7019742E+002  3.8156174E+002  3.9316268E+002  4.0645072E+002  4.2338151E+002  4.4833594E+002  2.9315000E+002  2.9315000E+002  2.9315000E+002  2.9315000E+002  2.9315000E+002  2.9315000E+002  2.9315000E+002  2.9315000E+002  2.9315000E+002  2.9315000E+002  2.9315000E+002  2.9315000E+002  2.9315000E+002  2.9315000E+002  2.9315000E+002  2.9315000E+002  2.9315000E+002  2.9315000E+002  2.9315000E+002  2.9315000E+002  2.9315000E+002  2.9315000E+002  2.9315000E+002  2.9315000E+002  2.9315000E+002  2.9315000E+002  2.9315000E+002  2.9315000E+002  2.9315000E+002  2.9315000E+002  2.9315000E+002  2.9315000E+002  2.9315000E+002  2.9315000E+002  2.9315000E+002  2.9315000E+002  2.9315000E+002  2.9315000E+002  2.9315000E+002  2.9315000E+002  2.9315000E+002  2.9315000E+002  2.9315000E+002  2.9315000E+002  2.9315000E+002  2.9315000E+002  2.9315000E+002  2.9315000E+002  2.9315000E+002  2.9315000E+002  2.9315000E+002  2.9315000E+002  4.9883596E+002  4.9068404E+002  4.7966102E+002  4.6477463E+002  4.4494134E+002  4.1897848E+002  3.8618245E+002  3.5333396E+002  3.2264937E+002  5.0285659E+002  5.0296606E+002  5.0307877E+002  5.0319643E+002  5.0331907E+002  5.0344766E+002  5.0358139E+002  5.0372213E+002  5.0387286E+002  5.0403715E+002  5.0423301E+002  5.0481824E+002  5.0481809E+002  5.0481785E+002  5.0481752E+002  5.0481711E+002  5.0481660E+002  5.0481602E+002  5.0481536E+002  5.0481462E+002  5.0481381E+002  5.0481294E+002  5.0481201E+002  5.0481102E+002  5.0480998E+002  5.0480889E+002  5.0480775E+002  5.0480657E+002  5.0480536E+002  5.0480411E+002  5.0480282E+002  5.0480151E+002  5.0480016E+002  5.0479879E+002  5.0479738E+002  5.0479595E+002  5.0479449E+002  5.0479300E+002  5.0479148E+002  5.0478993E+002  5.0478835E+002  5.0478673E+002  5.0478508E+002  5.0478340E+002  5.0478168E+002  5.0477991E+002  5.0477810E+002  5.0477625E+002  5.0477434E+002  5.0477237E+002  5.0477034E+002  5.0476824E+002  5.0476606E+002  5.0476379E+002  5.0476141E+002  5.0475891E+002  5.0475624E+002  5.0475337E+002  5.0475018E+002  5.0474643E+002  5.0473596E+002  5.0473201E+002  5.0472860E+002  5.0472552E+002  5.0472267E+002  5.0471996E+002  5.0471741E+002  5.0471497E+002  5.0471264E+002  5.0471039E+002  5.0470823E+002  5.0470613E+002  5.0470411E+002  5.0470214E+002  5.0470023E+002  5.0469837E+002  5.0469655E+002  5.0469478E+002  5.0469307E+002  5.0503203E+002  5.0504948E+002  5.0506200E+002  5.0507159E+002  5.0507912E+002  5.0508503E+002  5.0508939E+002  5.0509248E+002  5.0509446E+002  5.0506238E+002  5.0503071E+002  5.0499978E+002  5.0496973E+002  5.0494095E+002  5.0491353E+002  5.0488797E+002  5.0486588E+002  5.0485105E+002  5.0484107E+002  5.0483408E+002  5.0482886E+002  5.0482473E+002  5.0482129E+002  5.0481800E+002  5.0481787E+002  5.0481790E+002  5.0481816E+002  5.0481868E+002  5.0481956E+002  5.0482097E+002  5.0482312E+002  5.0482642E+002  5.0483157E+002  5.0483968E+002  5.0485087E+002  5.0486330E+002  5.0486165E+002  5.0485898E+002  5.0485505E+002  5.0485029E+002  5.0484473E+002  5.0483807E+002  5.0483071E+002  5.0482265E+002  5.0481394E+002  5.0480462E+002  5.0479477E+002  5.0478433E+002  5.0477298E+002  5.0476087E+002  5.0474783E+002  5.0473343E+002  5.0471753E+002  5.0469980E+002  5.0467987E+002  5.0465692E+002  5.0463048E+002  5.0459696E+002  4.8428075E+002  4.8438753E+002  4.8449727E+002  4.8460507E+002  4.8470947E+002  4.8481051E+002  4.8490784E+002  4.8500122E+002  4.8509130E+002  4.8517827E+002  4.8526250E+002  4.8534425E+002  4.8542383E+002  4.8550178E+002  4.8557888E+002  4.8565629E+002  4.8573545E+002  4.8581778E+002  4.8590421E+002  4.8599527E+002  4.8609119E+002  4.8619200E+002  4.8629765E+002  4.8640819E+002  4.8652354E+002  4.8664364E+002  4.8676844E+002  4.8689787E+002  4.8703191E+002  4.8717047E+002  4.8731349E+002  4.8746099E+002  4.8761295E+002  4.8776930E+002  4.8793004E+002  4.8809512E+002  4.8826453E+002  4.8843821E+002  4.8861617E+002  4.8879839E+002  4.8898478E+002  4.8917534E+002  4.8937007E+002  4.8956892E+002  4.8977184E+002  4.8997879E+002  4.9018977E+002  4.9040475E+002  4.9062365E+002  4.9084647E+002  4.9107323E+002  4.9130390E+002  4.9153839E+002  4.9177670E+002  4.9201883E+002  4.9226471E+002  4.9251433E+002  4.9276765E+002  4.9302460E+002  4.9328516E+002  4.9354935E+002  4.9381708E+002  4.9408835E+002  4.9436313E+002  4.9464134E+002  4.9492296E+002  4.9520799E+002  4.9549637E+002  4.9578806E+002  4.9608305E+002  4.9638124E+002  4.9668264E+002  4.9698725E+002  4.9729498E+002  4.9760581E+002  4.9791973E+002  4.9823662E+002  4.9855649E+002  4.9887931E+002  4.9920502E+002  4.9953359E+002  4.9986501E+002  5.0019917E+002  5.0053608E+002  5.0087572E+002  5.0121803E+002  5.0156299E+002  5.0191059E+002  5.0226074E+002  5.0261348E+002  5.0296885E+002  5.0332690E+002  5.0366735E+002  5.0395247E+002  5.0419578E+002  5.0440848E+002  5.0459885E+002  5.0477330E+002  5.0493702E+002  5.0491453E+002  5.0492680E+002  5.0490057E+002  5.0478219E+002  5.0480309E+002  5.0479335E+002  5.0468905E+002  5.0481033E+002  5.0476701E+002  5.0493315E+002  5.0470889E+002  5.0474280E+002  5.0480046E+002  5.0471017E+002  5.0469695E+002  5.0477443E+002  5.0468399E+002  5.0481524E+002  5.0475834E+002  5.0487374E+002  5.0472085E+002  5.0470130E+002  5.0472047E+002  5.0481794E+002  5.0468342E+002  5.0476644E+002  5.0478689E+002  5.0501774E+002  5.0479827E+002  5.0504876E+002  5.0483695E+002  5.0473017E+002  5.0495376E+002  5.0468421E+002  5.0475035E+002  5.0482000E+002  5.0470241E+002  5.0473085E+002  5.0471552E+002  5.0469268E+002  5.0469656E+002  5.0470570E+002  5.0468607E+002  5.0476301E+002  5.0481285E+002  5.0480729E+002  5.0484088E+002  5.0477168E+002  5.0477866E+002  5.0479037E+002  5.0506123E+002  5.0482644E+002  5.0501355E+002  5.0474360E+002  5.0468779E+002  5.0482045E+002  5.0489660E+002  5.0488187E+002  5.0485789E+002  5.0486120E+002  5.0488227E+002  5.0486330E+002  5.0484583E+002  5.0484360E+002  5.0485550E+002  5.0483694E+002  5.0484604E+002  5.0482684E+002  5.0482243E+002  5.0481282E+002  5.0481608E+002  5.0480226E+002  5.0480270E+002  5.0479298E+002  5.0478913E+002  5.0478254E+002  5.0477560E+002  5.0477154E+002  5.0477812E+002  5.0476897E+002  5.0476103E+002  5.0475968E+002  5.0475132E+002  5.0475055E+002  5.0475934E+002  5.0475202E+002  5.0474227E+002  5.0474264E+002  5.0475158E+002  5.0474363E+002  5.0473409E+002  5.0473608E+002  5.0472681E+002  5.0472899E+002  5.0473827E+002  5.0473135E+002  5.0472250E+002  5.0472478E+002  5.0473365E+002  5.0472714E+002  5.0471924E+002  5.0477581E+002  5.0478327E+002  5.0475285E+002  5.0473657E+002  5.0472959E+002  5.0483344E+002  5.0475961E+002  5.0474164E+002  5.0483553E+002  5.0478391E+002  5.0486950E+002  5.0485788E+002  5.0473673E+002  5.0472493E+002  5.0471838E+002  5.0477247E+002  5.0473081E+002  5.0472440E+002  5.0478234E+002  5.0478781E+002  5.0473757E+002  5.0476105E+002  5.0482786E+002  5.0488861E+002  5.0476737E+002  5.0477939E+002  5.0482813E+002  5.0487184E+002  5.0473198E+002  5.0473803E+002  5.0474381E+002  5.0471660E+002  5.0476798E+002  5.0483478E+002  5.0482887E+002  5.0471086E+002  5.0478700E+002  5.0478247E+002  5.0475277E+002  5.0474385E+002  5.0474497E+002  5.0473686E+002  5.0472218E+002  5.0473281E+002  5.0479156E+002  5.0479263E+002  5.0479196E+002  5.0478755E+002  5.0480119E+002  5.0484799E+002  5.0482340E+002  5.0482207E+002  5.0489536E+002  5.0476598E+002  5.0477225E+002  5.0472742E+002  5.0477179E+002  5.0471489E+002  5.0472031E+002  5.0473575E+002  5.0472947E+002  5.0476758E+002  5.0476285E+002  5.0491823E+002  5.0492374E+002  5.0485676E+002  5.0471216E+002  5.0473827E+002  5.0470544E+002  5.0470706E+002  5.0477713E+002  5.0478701E+002  5.0474380E+002  5.0476909E+002  5.0476538E+002  5.0475846E+002  5.0476039E+002  5.0473807E+002  5.0474608E+002  5.0470057E+002  5.0470226E+002  5.0483352E+002  5.0482818E+002  5.0479572E+002  5.0479702E+002  5.0479453E+002  5.0479895E+002  5.0480081E+002  5.0480259E+002  5.0478285E+002  5.0494894E+002  5.0495237E+002  5.0494499E+002  5.0498077E+002  5.0498094E+002  5.0495308E+002  5.0497925E+002  5.0479692E+002  5.0481142E+002  5.0477778E+002  5.0481818E+002  5.0495103E+002  5.0475380E+002  5.0475595E+002  5.0476223E+002  5.0475813E+002  5.0481957E+002  5.0481778E+002  5.0481977E+002  5.0481531E+002  5.0482041E+002  5.0481670E+002  5.0481238E+002  5.0481197E+002  5.0488258E+002  5.0481276E+002  5.0471336E+002  5.0471862E+002  5.0472661E+002  5.0482470E+002  5.0477337E+002  5.0478279E+002  5.0477769E+002  5.0480179E+002  5.0470397E+002  5.0486431E+002  5.0473304E+002  5.0473823E+002  5.0480923E+002  5.0476216E+002  5.0470869E+002  5.0470414E+002  5.0469774E+002  5.0469968E+002  5.0470692E+002  5.0470152E+002  5.0469565E+002  5.0469750E+002  5.0470299E+002  5.0469933E+002  5.0470479E+002  5.0470132E+002  5.0470654E+002  5.0469608E+002  5.0469781E+002  5.0469332E+002  5.0469091E+002  5.0469200E+002  5.0471027E+002  5.0471116E+002  5.0470784E+002  5.0471169E+002  5.0474926E+002  5.0480370E+002  5.0470849E+002  5.0481644E+002  5.0469570E+002  5.0469926E+002  5.0492769E+002  5.0490261E+002  5.0478197E+002  5.0483186E+002  5.0483841E+002  5.0482686E+002  5.0478185E+002  5.0473955E+002  5.0474784E+002  5.0479515E+002  5.0476415E+002  5.0476016E+002  5.0475426E+002  5.0475635E+002  5.0475057E+002  5.0475274E+002  5.0471560E+002  5.0469160E+002  5.0478759E+002  5.0479122E+002  5.0480969E+002  5.0475233E+002  5.0482186E+002  5.0484123E+002  5.0477152E+002  5.0481170E+002  5.0497438E+002  5.0500731E+002  5.0471247E+002  5.0471757E+002  5.0473170E+002  5.0475812E+002  5.0475461E+002  5.0492619E+002  5.0470826E+002  5.0470503E+002  5.0471194E+002  5.0471530E+002  5.0471526E+002  5.0471873E+002  5.0479088E+002  5.0479844E+002  5.0480274E+002  5.0468983E+002  5.0476614E+002  5.0479534E+002  5.0482935E+002  5.0474102E+002  5.0474972E+002  5.0474204E+002  5.0471813E+002  5.0480721E+002  5.0481413E+002  5.0476313E+002  5.0476830E+002  5.0476636E+002  5.0477168E+002  5.0480815E+002  5.0469330E+002  5.0477506E+002  5.0477052E+002  5.0476436E+002  5.0475942E+002  5.0479971E+002  5.0473273E+002  5.0481734E+002  5.0481845E+002  5.0482116E+002  5.0475758E+002  5.0469929E+002  5.0469452E+002  5.0482427E+002  5.0482146E+002  5.0497968E+002  5.0497529E+002  5.0493264E+002  5.0489916E+002  5.0478727E+002  5.0477449E+002  5.0501259E+002  5.0470660E+002  5.0469391E+002  5.0469178E+002  5.0469530E+002  5.0477407E+002  5.0477921E+002  5.0489669E+002  5.0486664E+002  5.0472829E+002  5.0472815E+002  5.0472368E+002  5.0468661E+002  5.0473040E+002  5.0472339E+002  5.0480458E+002  5.0483410E+002  5.0470872E+002  5.0470194E+002  5.0479634E+002  5.0472556E+002  5.0479172E+002  5.0474368E+002  5.0474907E+002  5.0474906E+002  5.0474913E+002  5.0475472E+002  5.0470402E+002  5.0471980E+002  5.0501249E+002  5.0501081E+002  5.0477632E+002  5.0472185E+002  5.0472003E+002  5.0474372E+002  5.0468819E+002  5.0468624E+002  5.0468822E+002  5.0476973E+002  5.0474167E+002  5.0476271E+002  5.0474380E+002  5.0473827E+002  5.0504027E+002  5.0482453E+002  5.0469421E+002  5.0484512E+002  5.0477704E+002  5.0475290E+002  5.0483479E+002  5.0484288E+002  5.0482672E+002  5.0470934E+002  5.0472229E+002  5.0480566E+002  5.0480532E+002  5.0497042E+002  5.0474094E+002  5.0479491E+002  5.0479503E+002  5.0480507E+002  5.0482564E+002  5.0469753E+002  5.0472863E+002  5.0478589E+002  5.0469034E+002  5.0469409E+002  5.0480447E+002  5.0469749E+002  5.0478615E+002  5.0485590E+002  5.0484376E+002  5.0492516E+002  5.0504446E+002  5.0502905E+002  5.0471561E+002  5.0471159E+002  5.0481420E+002  5.0477195E+002  5.0477287E+002  5.0498313E+002  5.0472367E+002  5.0471830E+002  5.0471628E+002  5.0474927E+002  5.0475460E+002  5.0473261E+002  5.0474701E+002  5.0473419E+002  5.0478249E+002  5.0478625E+002  5.0478980E+002  5.0478629E+002  5.0479825E+002  5.0474667E+002  5.0472383E+002  5.0469962E+002  5.0470528E+002  5.0469468E+002  5.0482033E+002  5.0481940E+002  5.0473451E+002  5.0473687E+002  5.0468770E+002  5.0472528E+002  5.0469092E+002  5.0469902E+002  5.0470353E+002  5.0470292E+002  5.0471278E+002  5.0474995E+002  5.0468594E+002  5.0476069E+002  5.0471813E+002  5.0468393E+002  5.0476518E+002  5.0481408E+002  5.0476893E+002  5.0481151E+002  5.0480884E+002  5.0468561E+002  5.0478056E+002  5.0480127E+002  5.0478380E+002  5.0477866E+002  5.0478549E+002  5.0483127E+002  5.0475323E+002  5.0481152E+002  5.0471056E+002  5.0482304E+002  5.0476621E+002  5.0482286E+002  5.0481880E+002  5.0487640E+002  5.0471128E+002  5.0482832E+002  5.0475197E+002  5.0504415E+002  5.0476709E+002  5.0472680E+002  5.0472716E+002  5.0480473E+002  5.0477678E+002  5.0476017E+002  5.0474906E+002  5.0481629E+002  5.0475890E+002  5.0476633E+002  5.0484672E+002  5.0478945E+002  5.0475776E+002  5.0471317E+002  5.0472433E+002  5.0473764E+002  5.0482276E+002  5.0489433E+002  5.0490407E+002  5.0471533E+002  5.0481715E+002  5.0477634E+002  5.0494884E+002  5.0472297E+002  5.0470261E+002  5.0468315E+002  5.0481871E+002  5.0492703E+002  5.0500787E+002  5.0474844E+002  5.0492801E+002  5.0479226E+002  5.0506495E+002  5.0482505E+002  5.0469105E+002  5.0475667E+002  5.0481767E+002  5.0480604E+002  5.0499599E+002  5.0470839E+002  5.0474683E+002  5.0481873E+002  5.0470038E+002  5.0480897E+002  5.0471221E+002  5.0471501E+002  5.0481547E+002  5.0471931E+002  5.0468904E+002  5.0469424E+002  5.0475316E+002  5.0479716E+002  5.0471458E+002  5.0470521E+002  5.0473345E+002  5.0478985E+002  5.0475092E+002  5.0477466E+002  5.0480071E+002  5.0469964E+002  5.0490615E+002  5.0480621E+002  5.0468215E+002  5.0478113E+002  5.0469158E+002  5.0482173E+002  5.0483596E+002  5.0480110E+002  5.0481022E+002  5.0478269E+002  5.0475387E+002  5.0503317E+002  5.0477817E+002  5.0479229E+002  5.0482630E+002  5.0474590E+002  5.0483096E+002  5.0481058E+002  5.0472116E+002  5.0469728E+002  5.0471627E+002  5.0486273E+002  5.0468796E+002  5.0475862E+002  5.0471552E+002  5.0471247E+002  5.0468202E+002  5.0470207E+002  5.0470788E+002  5.0490808E+002  5.0481272E+002  5.0472285E+002  5.0474091E+002  5.0476263E+002  5.0471888E+002  5.0470758E+002  5.0472611E+002  5.0480737E+002  5.0480046E+002  5.0504213E+002  5.0474471E+002  5.0479536E+002  5.0483956E+002  5.0484574E+002  5.0478278E+002  5.0476052E+002  5.0479837E+002  5.0477437E+002  5.0479745E+002  5.0478967E+002  5.0480247E+002  5.0482172E+002  5.0490492E+002  5.0488702E+002  5.0474735E+002  5.0482308E+002  5.0475632E+002  5.0473362E+002  5.0468974E+002  5.0474102E+002  5.0477419E+002  5.0477651E+002  5.0506986E+002  5.0506632E+002  5.0479293E+002  5.0468688E+002  5.0476571E+002  5.0481934E+002  5.0482043E+002  5.0496862E+002  5.0476831E+002  5.0480492E+002  5.0473401E+002  5.0479574E+002  5.0470088E+002  5.0480557E+002  5.0470614E+002  5.0472165E+002  5.0470722E+002  5.0468884E+002  5.0468977E+002  5.0474414E+002  5.0470427E+002  5.0491664E+002  5.0477167E+002  5.0468493E+002  5.0477854E+002  5.0482331E+002  5.0481980E+002  5.0480872E+002  5.0478008E+002  5.0476985E+002  5.0473279E+002  5.0471584E+002  5.0470519E+002  5.0480956E+002  5.0480378E+002  5.0479712E+002  5.0478964E+002  5.0478139E+002  5.0477204E+002  5.0476080E+002  5.0469756E+002  5.0469136E+002  5.0474960E+002  5.0481335E+002  5.0467274E+002  5.0474506E+002  5.0482861E+002  5.0481619E+002  5.0468824E+002  5.0464597E+002  5.0472411E+002  5.0468329E+002  5.0482012E+002  5.0465768E+002  5.0477716E+002  5.0470118E+002  5.0481452E+002  5.0484539E+002  5.0481743E+002  5.0468502E+002  5.0464399E+002  5.0468623E+002  5.0481827E+002  5.0464060E+002  5.0483752E+002  5.0479717E+002  5.0466492E+002  5.0469416E+002  5.0476580E+002  5.0475563E+002  5.0470127E+002  5.0471113E+002  5.0481491E+002  5.0477590E+002  5.0481157E+002  5.0480737E+002  5.0478480E+002  5.0480106E+002  5.0479273E+002  5.0464753E+002  5.0481781E+002  5.0485032E+002  5.0463888E+002  5.0462414E+002  5.0468502E+002  5.0481792E+002  5.0468542E+002  5.0468665E+002  5.0468618E+002  5.0468800E+002  5.0468832E+002  5.0468974E+002  5.0468947E+002  5.0469155E+002  5.0469098E+002  5.0469365E+002  5.0469269E+002  5.0469546E+002  5.0469447E+002  5.0469834E+002  5.0469658E+002  5.0470062E+002  5.0469873E+002  5.0470344E+002  5.0470105E+002  5.0470700E+002  5.0470366E+002  5.0471020E+002  5.0470555E+002  5.0471383E+002  5.0470877E+002  5.0469976E+002  5.0470220E+002  5.0469331E+002  5.0469488E+002  5.0468645E+002  5.0468736E+002  5.0467934E+002  5.0467951E+002  5.0471750E+002  5.0472181E+002  5.0472648E+002  5.0472961E+002  5.0473390E+002  5.0473685E+002  5.0474084E+002  5.0473294E+002  5.0474412E+002  5.0474769E+002  5.0469269E+002  5.0467230E+002  5.0472209E+002  5.0474421E+002  5.0475049E+002  5.0470559E+002  5.0475438E+002  5.0475739E+002  5.0475449E+002  5.0476039E+002  5.0475724E+002  5.0476266E+002  5.0476634E+002  5.0476910E+002  5.0476627E+002  5.0477184E+002  5.0476893E+002  5.0477390E+002  5.0477738E+002  5.0477983E+002  5.0477315E+002  5.0477703E+002  5.0478199E+002  5.0478553E+002  5.0478721E+002  5.0479152E+002  5.0479315E+002  5.0479003E+002  5.0479468E+002  5.0479181E+002  5.0479607E+002  5.0467166E+002  5.0475233E+002  5.0477932E+002  5.0469852E+002  5.0479989E+002  5.0480053E+002  5.0479822E+002  5.0479674E+002  5.0480127E+002  5.0480497E+002  5.0480535E+002  5.0480962E+002  5.0480950E+002  5.0480609E+002  5.0480961E+002  5.0481330E+002  5.0481280E+002  5.0480968E+002  5.0481248E+002  5.0481579E+002  5.0481495E+002  5.0481866E+002  5.0481742E+002  5.0479828E+002  5.0481461E+002  5.0481659E+002  5.0469597E+002  5.0467873E+002  5.0466544E+002  5.0479493E+002  5.0480997E+002  5.0480748E+002  5.0482116E+002  5.0469330E+002  5.0467908E+002  5.0481923E+002  5.0466607E+002  5.0467020E+002  5.0476120E+002  5.0475465E+002  5.0481442E+002  5.0481613E+002  5.0480957E+002  5.0481546E+002  5.0481806E+002  5.0481740E+002  5.0478999E+002  5.0477509E+002  5.0469137E+002  5.0477705E+002  5.0475045E+002  5.0475820E+002  5.0480782E+002  5.0479608E+002  5.0481588E+002  5.0481681E+002  5.0481839E+002  5.0468987E+002  5.0480575E+002  5.0481776E+002  5.0477350E+002  5.0479313E+002  5.0466008E+002  5.0469470E+002  5.0466055E+002  5.0468998E+002  5.0467786E+002  5.0466761E+002  5.0481278E+002  5.0481281E+002  5.0481144E+002  5.0475287E+002  5.0481677E+002  5.0481743E+002  5.0477511E+002  5.0477859E+002  5.0471246E+002  5.0477134E+002  5.0474867E+002  5.0474628E+002  5.0476675E+002  5.0476250E+002  5.0479200E+002  5.0479050E+002  5.0478930E+002  5.0466162E+002  5.0480605E+002  5.0479458E+002  5.0479687E+002  5.0480515E+002  5.0480368E+002  5.0480302E+002  5.0480177E+002  5.0476397E+002  5.0468850E+002  5.0468984E+002  5.0465526E+002  5.0465463E+002  5.0474453E+002  5.0474229E+002  5.0474039E+002  5.0473843E+002  5.0473623E+002  5.0473464E+002  5.0473238E+002  5.0473701E+002  5.0473090E+002  5.0472838E+002  5.0472708E+002  5.0472466E+002  5.0472956E+002  5.0472572E+002  5.0472237E+002  5.0472110E+002  5.0471890E+002  5.0471754E+002  5.0471512E+002  5.0471604E+002  5.0471282E+002  5.0471358E+002  5.0471067E+002  5.0471647E+002  5.0471375E+002  5.0469122E+002  5.0474383E+002  5.0477012E+002  5.0476796E+002  5.0481176E+002  5.0481289E+002  5.0481672E+002  5.0481726E+002  5.0481613E+002  5.0471123E+002  5.0470852E+002  5.0470795E+002  5.0470599E+002  5.0470646E+002  5.0470411E+002  5.0481047E+002  5.0467557E+002  5.0468664E+002  5.0466351E+002  5.0480807E+002  5.0479548E+002  5.0479755E+002  5.0479898E+002  5.0481918E+002  5.0482025E+002  5.0477723E+002  5.0478017E+002  5.0478169E+002  5.0478341E+002  5.0478139E+002  5.0470531E+002  5.0471631E+002  5.0478806E+002  5.0480686E+002  5.0465548E+002  5.0466064E+002  5.0472354E+002  5.0481681E+002  5.0482115E+002  5.0481788E+002  5.0465071E+002  5.0478675E+002  5.0481763E+002  5.0482266E+002  5.0479631E+002  5.0470454E+002  5.0470233E+002  5.0470684E+002  5.0470190E+002  5.0470021E+002  5.0470053E+002  5.0469855E+002  5.0469818E+002  5.0469667E+002  5.0478919E+002  5.0479358E+002  5.0475125E+002  5.0475528E+002  5.0475398E+002  5.0475756E+002  5.0469692E+002  5.0469522E+002  5.0469109E+002  5.0481601E+002  5.0482440E+002  5.0472657E+002  5.0480247E+002  5.0480072E+002  5.0478801E+002  5.0479816E+002  5.0481094E+002  5.0476712E+002  5.0476482E+002  5.0476922E+002  5.0478567E+002  5.0476581E+002  5.0481090E+002  5.0477501E+002  5.0480552E+002  5.0480609E+002  5.0472887E+002  5.0473491E+002  5.0472569E+002  5.0471716E+002  5.0477342E+002  5.0477698E+002  5.0478481E+002  5.0480848E+002  5.0482313E+002  5.0468856E+002  5.0468728E+002  5.0482146E+002  5.0471219E+002  5.0465547E+002  5.0469252E+002  5.0469233E+002  5.0478332E+002  5.0473836E+002  5.0476825E+002  5.0475439E+002  5.0480117E+002  5.0480239E+002  5.0482162E+002  5.0482496E+002  5.0480726E+002  5.0481601E+002  5.0469526E+002  5.0476250E+002  5.0476167E+002  5.0475635E+002  5.0467352E+002  5.0465870E+002  5.0465151E+002  5.0477634E+002  5.0470209E+002  5.0476970E+002  5.0474947E+002  5.0474269E+002  5.0478449E+002  5.0470718E+002  5.0476133E+002  5.0480423E+002  5.0480302E+002  5.0481241E+002  5.0469250E+002  5.0469516E+002  5.0480970E+002  5.0464102E+002  5.0478324E+002  5.0469624E+002  5.0481472E+002  5.0481477E+002  5.0481560E+002  5.0481480E+002  5.0481397E+002  5.0481425E+002  5.0481499E+002  5.0475986E+002  5.0466049E+002  5.0466600E+002  5.0466572E+002  5.0467131E+002  5.0467104E+002  5.0467687E+002  5.0471402E+002  5.0471157E+002  5.0471669E+002  5.0471914E+002  5.0471886E+002  5.0471906E+002  5.0470894E+002  5.0472982E+002  5.0470953E+002  5.0480199E+002  5.0468975E+002  5.0478697E+002  5.0478810E+002  5.0479012E+002  5.0479124E+002  5.0481626E+002  5.0479301E+002  5.0479452E+002  5.0479526E+002  5.0473429E+002  5.0472409E+002  5.0472685E+002  5.0479707E+002  5.0477878E+002  5.0478014E+002  5.0481197E+002  5.0474707E+002  5.0469091E+002  5.0480763E+002  5.0468941E+002  5.0477195E+002  5.0477080E+002  5.0476833E+002  5.0480676E+002  5.0470713E+002  5.0474269E+002  5.0480953E+002  5.0477598E+002  5.0478643E+002  5.0478133E+002  5.0479291E+002  5.0475329E+002  5.0481656E+002  5.0481709E+002  5.0481728E+002  5.0481757E+002  5.0477271E+002  5.0479900E+002  5.0483251E+002  5.0482807E+002  5.0466543E+002  5.0476269E+002  5.0474646E+002  5.0475220E+002  5.0473727E+002  5.0473188E+002  5.0472341E+002  5.0472749E+002  5.0471466E+002  5.0471725E+002  5.0470613E+002  5.0470626E+002  5.0471836E+002  5.0471205E+002  5.0474216E+002  5.0468045E+002  5.0468475E+002  5.0468140E+002  5.0468625E+002  5.0468253E+002  5.0468630E+002  5.0468853E+002  5.0468306E+002  5.0481785E+002  5.0481332E+002  5.0477761E+002  5.0477912E+002  5.0474520E+002  5.0483508E+002  5.0467613E+002  5.0468392E+002  5.0476460E+002  5.0472973E+002  5.0469866E+002  5.0468743E+002  5.0470273E+002  5.0470064E+002  5.0471781E+002  5.0470970E+002  5.0484443E+002  5.0483659E+002  5.0484103E+002  5.0483044E+002  5.0482175E+002  5.0480997E+002  5.0481830E+002  5.0481868E+002  5.0470503E+002  5.0482281E+002  5.0482813E+002  5.0468701E+002  5.0481898E+002  5.0469683E+002  5.0474973E+002  5.0474135E+002  5.0476356E+002  5.0468418E+002  5.0468773E+002  5.0467183E+002  5.0468745E+002  5.0466406E+002  5.0465704E+002  5.0465378E+002  5.0465092E+002  5.0464727E+002  5.0464863E+002  5.0465903E+002  5.0467232E+002  5.0465766E+002  5.0465068E+002  5.0468674E+002  5.0465066E+002  5.0464667E+002  5.0466617E+002  5.0471723E+002  5.0482768E+002  5.0464492E+002  5.0462378E+002  5.0478753E+002  5.0483806E+002  5.0482180E+002  5.0480638E+002  5.0480617E+002  5.0464170E+002  5.0464593E+002  5.0468373E+002  5.0464854E+002  5.0464622E+002  5.0468735E+002  5.0468620E+002  5.0480152E+002  5.0479982E+002  5.0469379E+002  5.0469365E+002  5.0473646E+002  5.0481772E+002  5.0481770E+002  5.0475826E+002  5.0469584E+002  5.0476319E+002  5.0469942E+002  5.0470312E+002  5.0471350E+002  5.0471435E+002  5.0481557E+002  5.0481418E+002  5.0476992E+002  5.0481254E+002  5.0481226E+002  5.0477396E+002  5.0481059E+002  5.0480622E+002  5.0480848E+002  5.0480832E+002  5.0478647E+002  5.0478317E+002  5.0480504E+002  5.0480247E+002  5.0479124E+002  5.0481391E+002  5.0468514E+002  5.0469646E+002  5.0464295E+002  5.0465226E+002  5.0476687E+002  5.0471156E+002  5.0469124E+002  5.0469971E+002  5.0470120E+002  5.0476707E+002  5.0464014E+002  5.0465330E+002  5.0469266E+002  5.0472319E+002  5.0465000E+002  5.0480646E+002  5.0470891E+002  5.0469802E+002  5.0470167E+002  5.0478542E+002  5.0478101E+002  5.0477392E+002  5.0478650E+002  5.0479266E+002  5.0481745E+002  5.0481124E+002  5.0481927E+002  5.0478498E+002  5.0470806E+002  5.0481583E+002  5.0479877E+002  5.0479851E+002  5.0474803E+002  5.0478898E+002  5.0471948E+002  5.0470356E+002  5.0479085E+002  5.0463879E+002  5.0476663E+002  5.0481301E+002  5.0482951E+002  5.0480000E+002  5.0467650E+002  5.0481972E+002  5.0474836E+002  5.0480020E+002  5.0470983E+002  5.0475641E+002  5.0472153E+002  5.0481788E+002  5.0468889E+002  5.0480426E+002  5.0479566E+002  5.0478048E+002  5.0475759E+002  5.0480907E+002  5.0480477E+002  5.0472813E+002  5.0473259E+002  5.0473773E+002  5.0468726E+002  5.0474046E+002  5.0479658E+002  5.0475822E+002  5.0479980E+002  5.0474013E+002  5.0472943E+002  5.0478807E+002  5.0481828E+002  5.0476912E+002  5.0481924E+002  5.0472340E+002  5.0482511E+002  5.0468608E+002  5.0478806E+002  5.0477500E+002  5.0478231E+002  5.0473334E+002  5.0473020E+002  5.0478311E+002  5.0468570E+002  5.0476375E+002  5.0482334E+002  5.0481792E+002  5.0481397E+002  5.0479076E+002  5.0467793E+002  5.0475967E+002  5.0469034E+002  5.0478968E+002  5.0469646E+002  5.0481704E+002  5.0481018E+002  5.0479417E+002  5.0480102E+002  5.0481665E+002  5.0482123E+002  5.0478347E+002  5.0471837E+002  5.0471990E+002  5.0480437E+002  5.0475106E+002  5.0480363E+002  5.0477738E+002  5.0481669E+002  5.0472624E+002  5.0469842E+002  5.0468549E+002  5.0478737E+002  5.0470379E+002  5.0473941E+002  5.0472094E+002  5.0473205E+002  5.0469105E+002  5.0463236E+002  5.0479933E+002  5.0468865E+002  5.0469382E+002  5.04