<?xml version="1.0"?>
<VTKFile type="UnstructuredGrid" version="0.1" byte_order="LittleEndian">
  <UnstructuredGrid>
    <Piece NumberOfPoints="3589" NumberOfCells="7513">
      <PointData>
        <DataArray type="Float64" Name="temperature" NumberOfComponents="1" format="ascii">
  5.0480659E+002  5.0479801E+002  5.0474432E+002  5.0465747E+002  5.0500000E+002  4.8210618E+002  4.8217067E+002  5.0495027E+002  5.0286015E+002  5.0286823E+002  2.9315000E+002  2.9315000E+002  2.9315000E+002  2.9315000E+002  5.0492604E+002  5.0485603E+002  5.0506346E+002  5.0497694E+002  5.0475013E+002  5.0475471E+002  5.0475930E+002  5.0476401E+002  5.0476882E+002  5.0477373E+002  5.0477861E+002  5.0478339E+002  5.0478789E+002  5.0479194E+002  5.0479536E+002  5.0479761E+002  5.0479883E+002  5.0479936E+002  5.0479938E+002  5.0479898E+002  5.0471627E+002  5.0473777E+002  5.0474921E+002  5.0475544E+002  5.0475868E+002  5.0475991E+002  5.0475973E+002  5.0475845E+002  5.0475638E+002  5.0475357E+002  5.0474998E+002  5.0485781E+002  5.0469561E+002  5.0451742E+002  5.0431936E+002  5.0409527E+002  5.0383669E+002  5.0353186E+002  5.0316647E+002  5.0278135E+002  5.0239871E+002  5.0201851E+002  5.0164079E+002  5.0126567E+002  5.0089311E+002  5.0052317E+002  5.0015589E+002  4.9979126E+002  4.9942939E+002  4.9907027E+002  4.9871389E+002  4.9836040E+002  4.9800977E+002  4.9766206E+002  4.9731726E+002  4.9697540E+002  4.9663662E+002  4.9630090E+002  4.9596828E+002  4.9563882E+002  4.9531250E+002  4.9498928E+002  4.9466944E+002  4.9435278E+002  4.9403945E+002  4.9372943E+002  4.9342277E+002  4.9311955E+002  4.9281967E+002  4.9252331E+002  4.9223042E+002  4.9194109E+002  4.9165528E+002  4.9137307E+002  4.9109442E+002  4.9081955E+002  4.9054819E+002  4.9028063E+002  4.9001677E+002  4.8975675E+002  4.8950039E+002  4.8924796E+002  4.8899932E+002  4.8875461E+002  4.8851371E+002  4.8827675E+002  4.8804369E+002  4.8781477E+002  4.8758963E+002  4.8736856E+002  4.8715161E+002  4.8693852E+002  4.8672985E+002  4.8652510E+002  4.8632454E+002  4.8612808E+002  4.8593579E+002  4.8574794E+002  4.8556402E+002  4.8538456E+002  4.8520951E+002  4.8503850E+002  4.8487218E+002  4.8470998E+002  4.8455222E+002  4.8439891E+002  4.8425004E+002  4.8410573E+002  4.8396577E+002  4.8383045E+002  4.8369984E+002  4.8357359E+002  4.8345234E+002  4.8333576E+002  4.8322367E+002  4.8311649E+002  4.8301403E+002  4.8291653E+002  4.8282369E+002  4.8273589E+002  4.8265339E+002  4.8257561E+002  4.8250308E+002  4.8243604E+002  4.8237405E+002  4.8231757E+002  4.8226667E+002  4.8222106E+002  4.8218109E+002  4.8214539E+002  4.8213996E+002  4.8215722E+002  4.8216695E+002  5.0494934E+002  5.0494871E+002  5.0494647E+002  5.0494344E+002  5.0493920E+002  5.0493409E+002  5.0492715E+002  5.0492036E+002  5.0491225E+002  5.0490285E+002  5.0489322E+002  5.0488194E+002  5.0486885E+002  5.0485365E+002  5.0483677E+002  5.0481671E+002  5.0479315E+002  5.0476406E+002  5.0472841E+002  5.0468490E+002  5.0462916E+002  5.0455833E+002  5.0446985E+002  5.0436223E+002  5.0423835E+002  5.0410440E+002  5.0396585E+002  5.0382748E+002  5.0369201E+002  5.0356107E+002  5.0343359E+002  5.0331201E+002  5.0319479E+002  5.0308130E+002  5.0297149E+002  5.0294418E+002  5.0297132E+002  5.0294809E+002  5.0480570E+002  5.0480470E+002  5.0480366E+002  5.0480259E+002  5.0480151E+002  5.0480039E+002  5.0479925E+002  5.0480034E+002  5.0479696E+002  5.0479468E+002  5.0479308E+002  5.0479199E+002  5.0479129E+002  5.0479092E+002  5.0479082E+002  5.0479096E+002  5.0479131E+002  5.0479185E+002  5.0479257E+002  5.0479346E+002  5.0479451E+002  5.0479571E+002  5.0479705E+002  5.0479855E+002  5.0480021E+002  5.0480202E+002  5.0480400E+002  5.0480615E+002  5.0480850E+002  5.0481106E+002  5.0481384E+002  5.0481689E+002  5.0482022E+002  5.0482388E+002  5.0482792E+002  5.0483240E+002  5.0483739E+002  5.0484300E+002  5.0484934E+002  5.0485662E+002  5.0486503E+002  5.0487493E+002  5.0488688E+002  5.0490152E+002  5.0492079E+002  5.0494872E+002  2.9633264E+002  2.9961384E+002  3.0309139E+002  3.0690937E+002  3.1121567E+002  3.1614568E+002  3.2205221E+002  3.2929500E+002  3.3858738E+002  3.5083337E+002  3.6405763E+002  3.7794329E+002  3.9300986E+002  4.0953293E+002  4.2790275E+002  4.4776208E+002  4.6665778E+002  2.9315000E+002  2.9315000E+002  2.9315000E+002  2.9315000E+002  2.9315000E+002  2.9315000E+002  2.9315000E+002  2.9315000E+002  2.9315000E+002  2.9315000E+002  2.9315000E+002  2.9315000E+002  2.9315000E+002  2.9315000E+002  2.9315000E+002  2.9315000E+002  2.9315000E+002  2.9315000E+002  2.9315000E+002  2.9315000E+002  2.9315000E+002  2.9315000E+002  2.9315000E+002  2.9315000E+002  2.9315000E+002  2.9315000E+002  2.9315000E+002  2.9315000E+002  2.9315000E+002  2.9315000E+002  2.9315000E+002  2.9315000E+002  2.9315000E+002  2.9315000E+002  2.9315000E+002  2.9315000E+002  2.9315000E+002  2.9315000E+002  2.9315000E+002  2.9315000E+002  2.9315000E+002  2.9315000E+002  2.9315000E+002  2.9315000E+002  2.9315000E+002  2.9315000E+002  2.9315000E+002  2.9315000E+002  2.9315000E+002  2.9315000E+002  2.9315000E+002  2.9315000E+002  4.9894755E+002  4.9079231E+002  4.7976460E+002  4.6487164E+002  4.4502917E+002  4.1905351E+002  3.8623999E+002  3.5337234E+002  3.2266856E+002  5.0297732E+002  5.0308681E+002  5.0319950E+002  5.0331708E+002  5.0343960E+002  5.0356801E+002  5.0370154E+002  5.0384220E+002  5.0399247E+002  5.0415615E+002  5.0435160E+002  5.0492600E+002  5.0492588E+002  5.0492569E+002  5.0492543E+002  5.0492511E+002  5.0492471E+002  5.0492425E+002  5.0492372E+002  5.0492314E+002  5.0492249E+002  5.0492179E+002  5.0492104E+002  5.0492024E+002  5.0491939E+002  5.0491849E+002  5.0491756E+002  5.0491658E+002  5.0491557E+002  5.0491452E+002  5.0491343E+002  5.0491231E+002  5.0491116E+002  5.0490997E+002  5.0490875E+002  5.0490750E+002  5.0490622E+002  5.0490490E+002  5.0490354E+002  5.0490216E+002  5.0490073E+002  5.0489927E+002  5.0489777E+002  5.0489623E+002  5.0489464E+002  5.0489302E+002  5.0489133E+002  5.0488961E+002  5.0488782E+002  5.0488597E+002  5.0488405E+002  5.0488207E+002  5.0488000E+002  5.0487783E+002  5.0487555E+002  5.0487315E+002  5.0487058E+002  5.0486780E+002  5.0486471E+002  5.0486106E+002  5.0485076E+002  5.0484684E+002  5.0484346E+002  5.0484040E+002  5.0483755E+002  5.0483486E+002  5.0483231E+002  5.0482988E+002  5.0482756E+002  5.0482532E+002  5.0482316E+002  5.0482107E+002  5.0481905E+002  5.0481709E+002  5.0481519E+002  5.0481334E+002  5.0481154E+002  5.0480979E+002  5.0480810E+002  5.0502094E+002  5.0503252E+002  5.0504092E+002  5.0504740E+002  5.0505247E+002  5.0505652E+002  5.0505947E+002  5.0506161E+002  5.0506296E+002  5.0504391E+002  5.0502526E+002  5.0500729E+002  5.0499017E+002  5.0497422E+002  5.0495960E+002  5.0494680E+002  5.0493685E+002  5.0493113E+002  5.0492803E+002  5.0492650E+002  5.0492581E+002  5.0492562E+002  5.0492573E+002  5.0492616E+002  5.0492643E+002  5.0492686E+002  5.0492751E+002  5.0492843E+002  5.0492972E+002  5.0493154E+002  5.0493412E+002  5.0493786E+002  5.0494345E+002  5.0495199E+002  5.0496351E+002  5.0497619E+002  5.0497466E+002  5.0497215E+002  5.0496844E+002  5.0496392E+002  5.0495862E+002  5.0495224E+002  5.0494515E+002  5.0493734E+002  5.0492887E+002  5.0491977E+002  5.0491012E+002  5.0489986E+002  5.0488867E+002  5.0487671E+002  5.0486381E+002  5.0484953E+002  5.0483374E+002  5.0481611E+002  5.0479625E+002  5.0477355E+002  5.0474699E+002  5.0471377E+002  4.8218735E+002  4.8221435E+002  4.8224976E+002  4.8229269E+002  4.8234217E+002  4.8239776E+002  4.8245902E+002  4.8252572E+002  4.8259773E+002  4.8267493E+002  4.8275731E+002  4.8284483E+002  4.8293727E+002  4.8303456E+002  4.8313686E+002  4.8324389E+002  4.8335571E+002  4.8347224E+002  4.8359348E+002  4.8371943E+002  4.8384995E+002  4.8398502E+002  4.8412478E+002  4.8426905E+002  4.8441771E+002  4.8457096E+002  4.8472867E+002  4.8489054E+002  4.8505695E+002  4.8522774E+002  4.8540282E+002  4.8558219E+002  4.8576584E+002  4.8595372E+002  4.8614585E+002  4.8634210E+002  4.8654253E+002  4.8674726E+002  4.8695597E+002  4.8716880E+002  4.8738566E+002  4.8760664E+002  4.8783161E+002  4.8806051E+002  4.8829340E+002  4.8853029E+002  4.8877105E+002  4.8901564E+002  4.8926422E+002  4.8951653E+002  4.8977270E+002  4.9003273E+002  4.9029646E+002  4.9056390E+002  4.9083500E+002  4.9110984E+002  4.9138836E+002  4.9167039E+002  4.9195612E+002  4.9224535E+002  4.9253806E+002  4.9283435E+002  4.9313403E+002  4.9343712E+002  4.9374367E+002  4.9405354E+002  4.9436669E+002  4.9468326E+002  4.9500303E+002  4.9532600E+002  4.9565212E+002  4.9598151E+002  4.9631402E+002  4.9664957E+002  4.9698823E+002  4.9732988E+002  4.9767447E+002  4.9802208E+002  4.9837255E+002  4.9872590E+002  4.9908210E+002  4.9944108E+002  4.9980276E+002  5.0016722E+002  5.0053443E+002  5.0090421E+002  5.0127662E+002  5.0165166E+002  5.0202925E+002  5.0240937E+002  5.0279205E+002  5.0317737E+002  5.0354332E+002  5.0384927E+002  5.0410987E+002  5.0433706E+002  5.0453975E+002  5.0472464E+002  5.0489737E+002  5.0502794E+002  5.0504057E+002  5.0501452E+002  5.0489440E+002  5.0491206E+002  5.0490403E+002  5.0479858E+002  5.0491811E+002  5.0488049E+002  5.0495904E+002  5.0481217E+002  5.0483501E+002  5.0487295E+002  5.0482489E+002  5.0480386E+002  5.0488730E+002  5.0479554E+002  5.0492143E+002  5.0487235E+002  5.0493990E+002  5.0483557E+002  5.0481601E+002  5.0481997E+002  5.0492374E+002  5.0479617E+002  5.0485062E+002  5.0489842E+002  5.0501408E+002  5.0490801E+002  5.0503467E+002  5.0492695E+002  5.0484489E+002  5.0498111E+002  5.0479805E+002  5.0486471E+002  5.0492512E+002  5.0480768E+002  5.0482707E+002  5.0483024E+002  5.0480099E+002  5.0481126E+002  5.0482043E+002  5.0479665E+002  5.0487677E+002  5.0491967E+002  5.0491514E+002  5.0489943E+002  5.0488489E+002  5.0489123E+002  5.0490151E+002  5.0504285E+002  5.0492551E+002  5.0501517E+002  5.0485820E+002  5.0480233E+002  5.0492565E+002  5.0495068E+002  5.0494271E+002  5.0493251E+002  5.0493235E+002  5.0494149E+002  5.0493109E+002  5.0492487E+002  5.0492125E+002  5.0492464E+002  5.0491509E+002  5.0491688E+002  5.0490678E+002  5.0490803E+002  5.0489995E+002  5.0489800E+002  5.0489054E+002  5.0489595E+002  5.0488746E+002  5.0488058E+002  5.0487883E+002  5.0486977E+002  5.0486970E+002  5.0487827E+002  5.0487031E+002  5.0486107E+002  5.0486239E+002  5.0485307E+002  5.0485467E+002  5.0486421E+002  5.0485825E+002  5.0484765E+002  5.0484981E+002  5.0485955E+002  5.0485227E+002  5.0484224E+002  5.0484547E+002  5.0483587E+002  5.0483916E+002  5.0484881E+002  5.0484252E+002  5.0483341E+002  5.0483653E+002  5.0484566E+002  5.0483961E+002  5.0483155E+002  5.0487918E+002  5.0488564E+002  5.0486219E+002  5.0484924E+002  5.0484264E+002  5.0491917E+002  5.0486843E+002  5.0485387E+002  5.0492225E+002  5.0487337E+002  5.0492981E+002  5.0492083E+002  5.0484994E+002  5.0483280E+002  5.0482716E+002  5.0486431E+002  5.0484433E+002  5.0483784E+002  5.0488703E+002  5.0489210E+002  5.0485118E+002  5.0487095E+002  5.0491930E+002  5.0493840E+002  5.0487710E+002  5.0486725E+002  5.0492145E+002  5.0492659E+002  5.0484584E+002  5.0485195E+002  5.0485718E+002  5.0482436E+002  5.0485839E+002  5.0492378E+002  5.0492317E+002  5.0481944E+002  5.0489314E+002  5.0488892E+002  5.0485196E+002  5.0484482E+002  5.0484377E+002  5.0483730E+002  5.0482899E+002  5.0484695E+002  5.0489755E+002  5.0489683E+002  5.0487662E+002  5.0487094E+002  5.0488080E+002  5.0491264E+002  5.0491967E+002  5.0491745E+002  5.0494443E+002  5.0487453E+002  5.0488166E+002  5.0484155E+002  5.0488012E+002  5.0482165E+002  5.0482611E+002  5.0483792E+002  5.0483125E+002  5.0487815E+002  5.0487361E+002  5.0495617E+002  5.0496087E+002  5.0491554E+002  5.0482156E+002  5.0485244E+002  5.0481472E+002  5.0481704E+002  5.0488642E+002  5.0489466E+002  5.0485780E+002  5.0488033E+002  5.0487691E+002  5.0486949E+002  5.0487206E+002  5.0483663E+002  5.0484281E+002  5.0481048E+002  5.0481279E+002  5.0492472E+002  5.0492418E+002  5.0490172E+002  5.0490131E+002  5.0489675E+002  5.0490130E+002  5.0490533E+002  5.0490526E+002  5.0489060E+002  5.0497451E+002  5.0497771E+002  5.0497083E+002  5.0499364E+002  5.0499467E+002  5.0497908E+002  5.0499445E+002  5.0487546E+002  5.0488565E+002  5.0488471E+002  5.0489268E+002  5.0497870E+002  5.0486510E+002  5.0486784E+002  5.0487442E+002  5.0487051E+002  5.0491877E+002  5.0491638E+002  5.0491478E+002  5.0491359E+002  5.0492057E+002  5.0491148E+002  5.0491043E+002  5.0491311E+002  5.0493095E+002  5.0490753E+002  5.0481915E+002  5.0482343E+002  5.0483115E+002  5.0492335E+002  5.0488450E+002  5.0486532E+002  5.0488784E+002  5.0490193E+002  5.0481251E+002  5.0491789E+002  5.0484740E+002  5.0485259E+002  5.0491002E+002  5.0485617E+002  5.0481930E+002  5.0481525E+002  5.0480881E+002  5.0481128E+002  5.0481865E+002  5.0481362E+002  5.0480768E+002  5.0481002E+002  5.0481560E+002  5.0481232E+002  5.0481786E+002  5.0481483E+002  5.0482007E+002  5.0480947E+002  5.0481160E+002  5.0480703E+002  5.0480422E+002  5.0480442E+002  5.0482342E+002  5.0482475E+002  5.0482175E+002  5.0482566E+002  5.0486092E+002  5.0490869E+002  5.0481513E+002  5.0491818E+002  5.0480979E+002  5.0481340E+002  5.0496533E+002  5.0495008E+002  5.0489211E+002  5.0492522E+002  5.0492631E+002  5.0492483E+002  5.0489121E+002  5.0483625E+002  5.0484251E+002  5.0490259E+002  5.0487678E+002  5.0487295E+002  5.0486685E+002  5.0486931E+002  5.0486339E+002  5.0486591E+002  5.0482885E+002  5.0480564E+002  5.0489649E+002  5.0490002E+002  5.0491310E+002  5.0486302E+002  5.0491335E+002  5.0490428E+002  5.0488336E+002  5.0491570E+002  5.0499222E+002  5.0501104E+002  5.0481731E+002  5.0482134E+002  5.0483036E+002  5.0487140E+002  5.0486810E+002  5.0496536E+002  5.0482253E+002  5.0481923E+002  5.0482622E+002  5.0482933E+002  5.0482958E+002  5.0483285E+002  5.0486923E+002  5.0490604E+002  5.0490924E+002  5.0480181E+002  5.0487348E+002  5.0489286E+002  5.0492543E+002  5.0483574E+002  5.0484245E+002  5.0485503E+002  5.0483247E+002  5.0491047E+002  5.0491604E+002  5.0486009E+002  5.0488081E+002  5.0487843E+002  5.0488412E+002  5.0491374E+002  5.0480618E+002  5.0486164E+002  5.0485631E+002  5.0485346E+002  5.0484784E+002  5.0490597E+002  5.0483934E+002  5.0492038E+002  5.0492186E+002  5.0492181E+002  5.0484987E+002  5.0480855E+002  5.0480437E+002  5.0492429E+002  5.0492395E+002  5.0499189E+002  5.0498801E+002  5.0496197E+002  5.0494245E+002  5.0488642E+002  5.0488615E+002  5.0501204E+002  5.0481233E+002  5.0480544E+002  5.0480285E+002  5.0480585E+002  5.0488441E+002  5.0489009E+002  5.0493749E+002  5.0491721E+002  5.0484264E+002  5.0484269E+002  5.0483806E+002  5.0479896E+002  5.0483065E+002  5.0482494E+002  5.0487890E+002  5.0490717E+002  5.0481634E+002  5.0480984E+002  5.0488269E+002  5.0483938E+002  5.0489936E+002  5.0485740E+002  5.0486293E+002  5.0486313E+002  5.0486272E+002  5.0486848E+002  5.0481790E+002  5.0482971E+002  5.0501280E+002  5.0501246E+002  5.0485873E+002  5.0483483E+002  5.0483382E+002  5.0485793E+002  5.0480113E+002  5.0479950E+002  5.0480189E+002  5.0488262E+002  5.0484493E+002  5.0487590E+002  5.0485819E+002  5.0485280E+002  5.0503011E+002  5.0492222E+002  5.0480860E+002  5.0492662E+002  5.0488529E+002  5.0484977E+002  5.0490266E+002  5.0490306E+002  5.0489166E+002  5.0482386E+002  5.0483646E+002  5.0490650E+002  5.0490298E+002  5.0498345E+002  5.0485249E+002  5.0490406E+002  5.0490498E+002  5.0491208E+002  5.0492520E+002  5.0480616E+002  5.0483180E+002  5.0486379E+002  5.0480472E+002  5.0480880E+002  5.0491287E+002  5.0481191E+002  5.0489643E+002  5.0493260E+002  5.0492859E+002  5.0496541E+002  5.0503327E+002  5.0502403E+002  5.0482720E+002  5.0482381E+002  5.0491864E+002  5.0487903E+002  5.0487833E+002  5.0499766E+002  5.0482387E+002  5.0481979E+002  5.0481901E+002  5.0486350E+002  5.0486873E+002  5.0484717E+002  5.0486149E+002  5.0483899E+002  5.0489331E+002  5.0489716E+002  5.0490024E+002  5.0489588E+002  5.0490700E+002  5.0485667E+002  5.0483855E+002  5.0480573E+002  5.0480960E+002  5.0480232E+002  5.0492543E+002  5.0492474E+002  5.0484920E+002  5.0483109E+002  5.0479777E+002  5.0482323E+002  5.0479985E+002  5.0481373E+002  5.0481824E+002  5.0481738E+002  5.0482750E+002  5.0483981E+002  5.0479701E+002  5.0487455E+002  5.0483286E+002  5.0479592E+002  5.0487881E+002  5.0492062E+002  5.0488226E+002  5.0491830E+002  5.0491659E+002  5.0479981E+002  5.0489297E+002  5.0491047E+002  5.0489582E+002  5.0489033E+002  5.0489731E+002  5.0492595E+002  5.0484817E+002  5.0490323E+002  5.0482178E+002  5.0492495E+002  5.0487922E+002  5.0489114E+002  5.0489622E+002  5.0493582E+002  5.0481525E+002  5.0491438E+002  5.0486412E+002  5.0503127E+002  5.0487107E+002  5.0484153E+002  5.0483289E+002  5.0488584E+002  5.0488949E+002  5.0487372E+002  5.0486240E+002  5.0492228E+002  5.0486642E+002  5.0487221E+002  5.0492838E+002  5.0489162E+002  5.0484494E+002  5.0482328E+002  5.0483888E+002  5.0485235E+002  5.0492558E+002  5.0493379E+002  5.0495304E+002  5.0482902E+002  5.0492309E+002  5.0488848E+002  5.0497806E+002  5.0482574E+002  5.0480925E+002  5.0479664E+002  5.0492428E+002  5.0496397E+002  5.0500709E+002  5.0486086E+002  5.0495751E+002  5.0490207E+002  5.0504528E+002  5.0491647E+002  5.0480141E+002  5.0486699E+002  5.0488412E+002  5.0491150E+002  5.0500485E+002  5.0482108E+002  5.0485780E+002  5.0490953E+002  5.0481481E+002  5.0490683E+002  5.0481435E+002  5.0482575E+002  5.0491983E+002  5.0483276E+002  5.0480048E+002  5.0480349E+002  5.0486713E+002  5.0489729E+002  5.0482736E+002  5.0481969E+002  5.0483041E+002  5.0489973E+002  5.0484201E+002  5.0485594E+002  5.0490844E+002  5.0480703E+002  5.0495503E+002  5.0491483E+002  5.0479452E+002  5.0489260E+002  5.0480632E+002  5.0492292E+002  5.0492640E+002  5.0489841E+002  5.0491573E+002  5.0489139E+002  5.0486813E+002  5.0502624E+002  5.0488358E+002  5.0489237E+002  5.0489565E+002  5.0485786E+002  5.0490246E+002  5.0488115E+002  5.0483574E+002  5.0480525E+002  5.0481706E+002  5.0491305E+002  5.0480199E+002  5.0487231E+002  5.0483006E+002  5.0482697E+002  5.0479515E+002  5.0481623E+002  5.0482262E+002  5.0494629E+002  5.0491767E+002  5.0482667E+002  5.0485548E+002  5.0487606E+002  5.0483342E+002  5.0481242E+002  5.0482503E+002  5.0489047E+002  5.0491033E+002  5.0502944E+002  5.0485737E+002  5.0490596E+002  5.0492588E+002  5.0492873E+002  5.0489406E+002  5.0486689E+002  5.0487313E+002  5.0488669E+002  5.0490767E+002  5.0490120E+002  5.0491020E+002  5.0492463E+002  5.0495252E+002  5.0494266E+002  5.0486043E+002  5.0492537E+002  5.0484708E+002  5.0483718E+002  5.0480453E+002  5.0485571E+002  5.0488731E+002  5.0488757E+002  5.0504831E+002  5.0504554E+002  5.0490405E+002  5.0479863E+002  5.0485149E+002  5.0492281E+002  5.0492576E+002  5.0498928E+002  5.0486256E+002  5.0490831E+002  5.0484863E+002  5.0490428E+002  5.0481478E+002  5.0490050E+002  5.0481839E+002  5.0483563E+002  5.0482175E+002  5.0480147E+002  5.0480051E+002  5.0483720E+002  5.0481151E+002  5.0495388E+002  5.0488225E+002  5.0479794E+002  5.0489057E+002  5.0492103E+002  5.0492358E+002  5.0490414E+002  5.0488799E+002  5.0488189E+002  5.0484763E+002  5.0483077E+002  5.0482016E+002  5.0491928E+002  5.0491444E+002  5.0490869E+002  5.0490201E+002  5.0489447E+002  5.0488572E+002  5.0487500E+002  5.0481257E+002  5.0480647E+002  5.0486417E+002  5.0492241E+002  5.0478837E+002  5.0486091E+002  5.0494031E+002  5.0492467E+002  5.0480342E+002  5.0476209E+002  5.0483902E+002  5.0479868E+002  5.0493050E+002  5.0477350E+002  5.0489255E+002  5.0481739E+002  5.0492902E+002  5.0495853E+002  5.0492567E+002  5.0480031E+002  5.0475999E+002  5.0480144E+002  5.0492779E+002  5.0475686E+002  5.0495120E+002  5.0491217E+002  5.0478132E+002  5.0480921E+002  5.0487979E+002  5.0487001E+002  5.0481626E+002  5.0482608E+002  5.0492365E+002  5.0488935E+002  5.0492096E+002  5.0491747E+002  5.0489761E+002  5.0491213E+002  5.0490479E+002  5.0476345E+002  5.0492655E+002  5.0496310E+002  5.0475485E+002  5.0474067E+002  5.0480026E+002  5.0492604E+002  5.0480068E+002  5.0480193E+002  5.0480148E+002  5.0480327E+002  5.0480356E+002  5.0480498E+002  5.0480474E+002  5.0480679E+002  5.0480626E+002  5.0480889E+002  5.0480798E+002  5.0481071E+002  5.0480977E+002  5.0481359E+002  5.0481190E+002  5.0481589E+002  5.0481407E+002  5.0481873E+002  5.0481641E+002  5.0482231E+002  5.0481905E+002  5.0482554E+002  5.0482099E+002  5.0482922E+002  5.0482426E+002  5.0481530E+002  5.0481780E+002  5.0480896E+002  5.0481059E+002  5.0480219E+002  5.0480316E+002  5.0479517E+002  5.0479540E+002  5.0483278E+002  5.0483712E+002  5.0484169E+002  5.0484486E+002  5.0484905E+002  5.0485204E+002  5.0485593E+002  5.0484822E+002  5.0485926E+002  5.0486271E+002  5.0480805E+002  5.0478820E+002  5.0483728E+002  5.0485919E+002  5.0486540E+002  5.0482079E+002  5.0486933E+002  5.0487223E+002  5.0486928E+002  5.0487511E+002  5.0487193E+002  5.0487726E+002  5.0488099E+002  5.0488361E+002  5.0488072E+002  5.0488620E+002  5.0488325E+002  5.0488811E+002  5.0489166E+002  5.0489394E+002  5.0488771E+002  5.0489106E+002  5.0489592E+002  5.0489955E+002  5.0490101E+002  5.0490542E+002  5.0490683E+002  5.0490359E+002  5.0490813E+002  5.0490514E+002  5.0490928E+002  5.0478762E+002  5.0486708E+002  5.0489317E+002  5.0481371E+002  5.0491322E+002  5.0491362E+002  5.0491205E+002  5.0490969E+002  5.0491408E+002  5.0491793E+002  5.0491802E+002  5.0492246E+002  5.0492204E+002  5.0491846E+002  5.0492182E+002  5.0492571E+002  5.0492488E+002  5.0492153E+002  5.0492421E+002  5.0492775E+002  5.0492652E+002  5.0493052E+002  5.0492890E+002  5.0491096E+002  5.0492579E+002  5.0492767E+002  5.0481176E+002  5.0479449E+002  5.0478140E+002  5.0490772E+002  5.0492143E+002  5.0491910E+002  5.0493292E+002  5.0480851E+002  5.0479505E+002  5.0493140E+002  5.0478197E+002  5.0478623E+002  5.0487609E+002  5.0486931E+002  5.0492515E+002  5.0492683E+002  5.0492271E+002  5.0492847E+002  5.0492905E+002  5.0492802E+002  5.0490409E+002  5.0488905E+002  5.0480697E+002  5.0489085E+002  5.0486517E+002  5.0487321E+002  5.0491912E+002  5.0490864E+002  5.0492619E+002  5.0492697E+002  5.0492892E+002  5.0480509E+002  5.0491716E+002  5.0492790E+002  5.0488739E+002  5.0490578E+002  5.0477603E+002  5.0481012E+002  5.0477645E+002  5.0480531E+002  5.0479390E+002  5.0478372E+002  5.0492364E+002  5.0492332E+002  5.0492205E+002  5.0486750E+002  5.0492656E+002  5.0492718E+002  5.0488886E+002  5.0489225E+002  5.0482802E+002  5.0488537E+002  5.0486336E+002  5.0486106E+002  5.0488170E+002  5.0487760E+002  5.0490486E+002  5.0490327E+002  5.0490226E+002  5.0477771E+002  5.0491716E+002  5.0490701E+002  5.0490921E+002  5.0491685E+002  5.0491522E+002  5.0491482E+002  5.0491342E+002  5.0487837E+002  5.0480372E+002  5.0480503E+002  5.0477121E+002  5.0477062E+002  5.0485928E+002  5.0485712E+002  5.0485521E+002  5.0485330E+002  5.0485111E+002  5.0484956E+002  5.0484730E+002  5.0485194E+002  5.0484587E+002  5.0484335E+002  5.0484210E+002  5.0483968E+002  5.0484458E+002  5.0484069E+002  5.0483738E+002  5.0483616E+002  5.0483395E+002  5.0483263E+002  5.0483021E+002  5.0483108E+002  5.0482790E+002  5.0482861E+002  5.0482574E+002  5.0483147E+002  5.0482889E+002  5.0480641E+002  5.0485867E+002  5.0488411E+002  5.0488207E+002  5.0492202E+002  5.0492304E+002  5.0492612E+002  5.0492661E+002  5.0492559E+002  5.0482626E+002  5.0482358E+002  5.0482305E+002  5.0482109E+002  5.0482151E+002  5.0481919E+002  5.0492082E+002  5.0479171E+002  5.0480269E+002  5.0477971E+002  5.0491906E+002  5.0490771E+002  5.0490967E+002  5.0491120E+002  5.0492966E+002  5.0493112E+002  5.0489084E+002  5.0489368E+002  5.0489526E+002  5.0489679E+002  5.0489475E+002  5.0482045E+002  5.0483145E+002  5.0490094E+002  5.0491767E+002  5.0477140E+002  5.0477651E+002  5.0483850E+002  5.0492583E+002  5.0493198E+002  5.0492758E+002  5.0476666E+002  5.0489981E+002  5.0492692E+002  5.0493386E+002  5.0490832E+002  5.0481959E+002  5.0481740E+002  5.0482185E+002  5.0481701E+002  5.0481531E+002  5.0481560E+002  5.0481365E+002  5.0481331E+002  5.0481179E+002  5.0490189E+002  5.0490590E+002  5.0486586E+002  5.0486982E+002  5.0486850E+002  5.0487200E+002  5.0481201E+002  5.0481034E+002  5.0480626E+002  5.0492933E+002  5.0493759E+002  5.0484151E+002  5.0491385E+002  5.0491223E+002  5.0490115E+002  5.0491006E+002  5.0492187E+002  5.0488118E+002  5.0487900E+002  5.0488316E+002  5.0489865E+002  5.0488003E+002  5.0492093E+002  5.0488868E+002  5.0491640E+002  5.0491667E+002  5.0484398E+002  5.0484996E+002  5.0484076E+002  5.0483238E+002  5.0488843E+002  5.0489181E+002  5.0489830E+002  5.0491920E+002  5.0493425E+002  5.0480376E+002  5.0480250E+002  5.0493428E+002  5.0482738E+002  5.0477135E+002  5.0480767E+002  5.0480747E+002  5.0489696E+002  5.0485318E+002  5.0488343E+002  5.0486965E+002  5.0491306E+002  5.0491443E+002  5.0493287E+002  5.0493654E+002  5.0492070E+002  5.0492968E+002  5.0481035E+002  5.0487679E+002  5.0487592E+002  5.0487078E+002  5.0478974E+002  5.0477502E+002  5.0476778E+002  5.0488990E+002  5.0481730E+002  5.0488439E+002  5.0486431E+002  5.0485763E+002  5.0489763E+002  5.0482232E+002  5.0487585E+002  5.0491550E+002  5.0491418E+002  5.0492382E+002  5.0480768E+002  5.0481032E+002  5.0491985E+002  5.0475741E+002  5.0489631E+002  5.0481145E+002  5.0492508E+002  5.0492476E+002  5.0492549E+002  5.0492442E+002  5.0492367E+002  5.0492359E+002  5.0492427E+002  5.0487431E+002  5.0477632E+002  5.0478181E+002  5.0478149E+002  5.0478706E+002  5.0478675E+002  5.0479255E+002  5.0482902E+002  5.0482656E+002  5.0483166E+002  5.0483411E+002  5.0483386E+002  5.0483400E+002  5.0482396E+002  5.0484474E+002  5.0482452E+002  5.0491450E+002  5.0480492E+002  5.0489979E+002  5.0490074E+002  5.0490265E+002  5.0490384E+002  5.0492538E+002  5.0490613E+002  5.0490664E+002  5.0490720E+002  5.0484916E+002  5.0483902E+002  5.0484175E+002  5.0490884E+002  5.0489224E+002  5.0489345E+002  5.0492189E+002  5.0486175E+002  5.0480606E+002  5.0491815E+002  5.0480458E+002  5.0488581E+002  5.0488463E+002  5.0488224E+002  5.0491876E+002  5.0482211E+002  5.0485745E+002  5.0492070E+002  5.0489066E+002  5.0490107E+002  5.0489580E+002  5.0490732E+002  5.0486778E+002  5.0492525E+002  5.0492571E+002  5.0492624E+002  5.0492647E+002  5.0488681E+002  5.0491065E+002  5.0494553E+002  5.0494073E+002  5.0478117E+002  5.0487808E+002  5.0486190E+002  5.0486777E+002  5.0485288E+002  5.0484738E+002  5.0483906E+002  5.0484324E+002  5.0483044E+002  5.0483312E+002  5.0482201E+002  5.0482224E+002  5.0483434E+002  5.0482773E+002  5.0485751E+002  5.0479592E+002  5.0480017E+002  5.0479690E+002  5.0480171E+002  5.0479807E+002  5.0480165E+002  5.0480402E+002  5.0479865E+002  5.0492705E+002  5.0492275E+002  5.0489103E+002  5.0489240E+002  5.0485988E+002  5.0494721E+002  5.0479176E+002  5.0479956E+002  5.0487872E+002  5.0484462E+002  5.0481373E+002  5.0480274E+002  5.0481776E+002  5.0481567E+002  5.0483324E+002  5.0482488E+002  5.0495695E+002  5.0494895E+002  5.0495373E+002  5.0494279E+002  5.0493256E+002  5.0492063E+002  5.0492801E+002  5.0492869E+002  5.0482004E+002  5.0493441E+002  5.0494011E+002  5.0480225E+002  5.0492893E+002  5.0481188E+002  5.0486433E+002  5.0485707E+002  5.0487789E+002  5.0479952E+002  5.0480361E+002  5.0478762E+002  5.0480341E+002  5.0478008E+002  5.0477311E+002  5.0476991E+002  5.0476702E+002  5.0476344E+002  5.0476469E+002  5.0477504E+002  5.0478816E+002  5.0477384E+002  5.0476667E+002  5.0480286E+002  5.0476658E+002  5.0476262E+002  5.0478202E+002  5.0483333E+002  5.0494157E+002  5.0476139E+002  5.0474023E+002  5.0490274E+002  5.0495144E+002  5.0493602E+002  5.0492065E+002  5.0492093E+002  5.0475768E+002  5.0476195E+002  5.0480002E+002  5.0476476E+002  5.0476219E+002  5.0480256E+002  5.0480142E+002  5.0491277E+002  5.0491120E+002  5.0480891E+002  5.0480874E+002  5.0485128E+002  5.0492590E+002  5.0492623E+002  5.0487256E+002  5.0481087E+002  5.0487729E+002  5.0481442E+002  5.0481810E+002  5.0482844E+002  5.0482932E+002  5.0492418E+002  5.0492306E+002  5.0488372E+002  5.0492176E+002  5.0492184E+002  5.0488753E+002  5.0492015E+002  5.0491651E+002  5.0491839E+002  5.0491853E+002  5.0489913E+002  5.0489612E+002  5.0491552E+002  5.0491332E+002  5.0490346E+002  5.0492789E+002  5.0480037E+002  5.0481162E+002  5.0475889E+002  5.0476814E+002  5.0488115E+002  5.0482669E+002  5.0480646E+002  5.0481486E+002  5.0481635E+002  5.0488263E+002  5.0475646E+002  5.0476934E+002  5.0480774E+002  5.0483866E+002  5.0476602E+002  5.0492022E+002  5.0482386E+002  5.0481352E+002  5.0481777E+002  5.0489864E+002  5.0489420E+002  5.0488757E+002  5.0489981E+002  5.0490489E+002  5.0492602E+002  5.0492097E+002  5.0493064E+002  5.0489788E+002  5.0482330E+002  5.0492471E+002  5.0491122E+002  5.0490989E+002  5.0486282E+002  5.0490383E+002  5.0483464E+002  5.0481868E+002  5.0490390E+002  5.0475475E+002  5.0488065E+002  5.0492282E+002  5.0494139E+002  5.0491177E+002  5.0479205E+002  5.0493012E+002  5.0486357E+002  5.0491476E+002  5.0482495E+002  5.0487212E+002  5.0483647E+002  5.0492624E+002  5.0480427E+002  5.0491622E+002  5.0490740E+002  5.0489420E+002  5.0487215E+002  5.0491951E+002  5.0491550E+002  5.0484321E+002  5.0484762E+002  5.0485271E+002  5.0480246E+002  5.0485534E+002  5.0491076E+002  5.0487256E+002  5.0491339E+002  5.0485513E+002  5.0484430E+002  5.0490059E+002  5.0492835E+002  5.0488328E+002  5.0493017E+002  5.0483846E+002  5.0493709E+002  5.0480132E+002  5.0490149E+002  5.0488942E+002  5.0489553E+002  5.0484832E+002  5.0484606E+002  5.0489689E+002  5.0480139E+002  5.0487852E+002  5.0493554E+002  5.0492705E+002  5.0492669E+002  5.0490315E+002  5.0479365E+002  5.0487402E+002  5.0480548E+002  5.0490291E+002  5.0481234E+002  5.0492535E+002  5.0492005E+002  5.0490607E+002  5.0491328E+002  5.0492895E+002  5.0493372E+002  5.0489766E+002  5.0483330E+002  5.0483500E+002  5.0491757E+002  5.0486614E+002  5.0491585E+002  5.0489073E+002  5.0492501E+002  5.0484160E+002  5.0481345E+002  5.0480083E+002  5.0490166E+002  5.0481948E+002  5.0485467E+002  5.0483586E+002  5.0484804E+002  5.0480657E+002  5.0474871E+002  5.0491134E+002  5.04